LAMMPS (29 Sep 2021 - Update 1)
Reading data file ...
  triclinic box = (0.0000000 0.0000000 0.0000000) to (10.520000 9.1105872 10.460000) with tilt (0.0000000 0.0000000 0.0000000)
  1 by 1 by 1 MPI processor grid
  reading atoms ...
  64 atoms
  read_data CPU = 0.001 seconds
Neighbor list info ...
  update every 1 steps, delay 0 steps, check yes
  max neighbors/atom: 2000, page size: 100000
  master list distance cutoff = 7
  ghost atom cutoff = 7
  binsize = 3.5, bins = 4 3 3
  1 neighbor lists, perpetual/occasional/extra = 1 0 0
  (1) pair mlip, perpetual
      attributes: full, newton on
      pair build: full/bin/atomonly
      stencil: full/bin/3d
      bin: standard
Setting up Verlet run ...
  Unit style    : metal
  Current step  : 0
  Time step     : 0.001
Per MPI rank memory allocation (min/avg/max) = 3.089 | 3.089 | 3.089 Mbytes
Step Time Temp Volume Press 
       0            0         1380    1002.5217   -4042.4102 
       1        0.001     1379.124    1002.5217   -4011.1284 
       2        0.002    1376.5001    1002.5217    -3917.471 
       3        0.003    1372.1407    1002.5217   -3761.8838 
       4        0.004    1366.0652    1002.5217   -3545.0331 
       5        0.005    1358.3013    1002.5217    -3269.831 
       6        0.006    1348.8845    1002.5217   -2938.5191 
       7        0.007     1337.859    1002.5217   -2556.5579 
       8        0.008    1325.2766    1002.5217   -2126.9619 
       9        0.009    1311.1954    1002.5217   -1645.6963 
      10         0.01    1295.6788    1002.5217   -1114.5338 
Loop time of 0.215315 on 1 procs for 10 steps with 64 atoms

Performance: 4.013 ns/day, 5.981 hours/ns, 46.444 timesteps/s
96.4% CPU use with 1 MPI tasks x no OpenMP threads

MPI task timing breakdown:
Section |  min time  |  avg time  |  max time  |%varavg| %total
---------------------------------------------------------------
Pair    | 0.2152     | 0.2152     | 0.2152     |   0.0 | 99.95
Neigh   | 0          | 0          | 0          |   0.0 |  0.00
Comm    | 3.2152e-05 | 3.2152e-05 | 3.2152e-05 |   0.0 |  0.01
Output  | 3.8644e-05 | 3.8644e-05 | 3.8644e-05 |   0.0 |  0.02
Modify  | 2.9418e-05 | 2.9418e-05 | 2.9418e-05 |   0.0 |  0.01
Other   |            | 1.111e-05  |            |       |  0.01

Nlocal:        64.0000 ave          64 max          64 min
Histogram: 1 0 0 0 0 0 0 0 0 0
Nghost:        886.000 ave         886 max         886 min
Histogram: 1 0 0 0 0 0 0 0 0 0
Neighs:         0.00000 ave           0 max           0 min
Histogram: 1 0 0 0 0 0 0 0 0 0
FullNghs:      6272.00 ave        6272 max        6272 min
Histogram: 1 0 0 0 0 0 0 0 0 0

Total # of neighbors = 6272
Ave neighs/atom = 98.000000
Neighbor list builds = 0
Dangerous builds = 0
Setting up Verlet run ...
  Unit style    : metal
  Current step  : 10
  Time step     : 0.001
Per MPI rank memory allocation (min/avg/max) = 3.089 | 3.089 | 3.089 Mbytes
Step Time Temp Volume Press 
      10         0.01    1295.6788    1002.5217   -1114.5338 
      11        0.011    1278.7964    1002.5217   -539.44541 
      12        0.012    1260.6226    1002.5217    76.857151 
      13        0.013     1241.237    1002.5217    732.75654 
      14        0.014     1220.724    1002.5217    1423.4491 
      15        0.015    1199.1729    1002.5217    2142.6165 
      16        0.016    1176.6778    1002.5217    2886.1441 
      17        0.017    1153.3369    1002.5217     3647.197 
      18        0.018    1129.2529    1002.5217    4425.2362 
      19        0.019    1104.5335    1002.5217     5222.806 
      20         0.02    1079.2895    1002.5217    6031.4563 
      21        0.021    1053.6338    1002.5217    6853.7928 
      22        0.022    1027.6816    1002.5217    7684.5051 
      23        0.023    1001.5485    1002.5217    8521.6078 
      24        0.024    975.34966    1002.5217    9356.0215 
      25        0.025    949.19873    1002.5217    10185.148 
      26        0.026    923.20778    1002.5217    11006.703 
      27        0.027    897.48668    1002.5217     11821.54 
      28        0.028    872.14206    1002.5217    12627.662 
      29        0.029    847.27598    1002.5217    13421.249 
      30         0.03      822.985    1002.5217    14199.422 
      31        0.031    799.35922    1002.5217     14957.94 
      32        0.032    776.48189    1002.5217     15696.94 
      33        0.033    754.42868    1002.5217      16412.2 
      34        0.034    733.26686    1002.5217    17101.724 
      35        0.035    713.05505    1002.5217    17764.327 
      36        0.036     693.8428    1002.5217    18397.218 
      37        0.037    675.67044    1002.5217    18999.714 
      38        0.038    658.56889    1002.5217    19570.137 
      39        0.039    642.55969    1002.5217    20109.514 
      40         0.04    627.65518    1002.5217    20616.735 
      41        0.041    613.85859    1002.5217    21091.953 
      42        0.042    601.16432    1002.5217    21535.067 
      43        0.043    589.55844    1002.5217    21945.803 
      44        0.044    579.01907    1002.5217    22323.435 
      45        0.045    569.51703    1002.5217    22669.838 
      46        0.046    561.01665    1002.5217    22985.632 
      47        0.047    553.47637    1002.5217    23272.099 
      48        0.048    546.84946    1002.5217    23530.453 
      49        0.049    541.08473    1002.5217    23761.067 
      50         0.05    536.12723    1002.5217    23966.402 
      51        0.051    531.91915    1002.5217      24147.8 
      52        0.052     528.4006    1002.5217    24305.642 
      53        0.053    525.51041    1002.5217    24441.909 
      54        0.054    523.18685    1002.5217    24557.223 
      55        0.055    521.36838    1002.5217    24655.187 
      56        0.056    519.99441    1002.5217    24737.689 
      57        0.057    519.00574    1002.5217    24806.523 
      58        0.058    518.34504    1002.5217    24863.501 
      59        0.059    517.95744    1002.5217    24909.715 
      60         0.06    517.79098    1002.5217    24947.322 
      61        0.061    517.79699    1002.5217    24977.725 
      62        0.062    517.93043    1002.5217    25002.556 
      63        0.063    518.15005    1002.5217    25023.064 
      64        0.064    518.41869    1002.5217    25040.287 
      65        0.065    518.70325    1002.5217    25054.854 
      66        0.066    518.97476    1002.5217    25066.065 
      67        0.067    519.20857    1002.5217    25077.036 
      68        0.068    519.38456    1002.5217    25088.671 
      69        0.069    519.48686    1002.5217    25101.202 
      70         0.07     519.5037    1002.5217    25113.375 
      71        0.071    519.42708    1002.5217    25127.763 
      72        0.072    519.25275    1002.5217    25144.045 
      73        0.073    518.98009    1002.5217    25163.111 
      74        0.074    518.61164    1002.5217    25185.186 
      75        0.075    518.15287    1002.5217     25208.38 
      76        0.076    517.61189    1002.5217    25231.747 
      77        0.077    516.99916    1002.5217    25256.899 
      78        0.078    516.32717    1002.5217    25283.551 
      79        0.079    515.61003    1002.5217    25310.678 
      80         0.08      514.863    1002.5217    25338.196 
      81        0.081    514.10218    1002.5217    25366.247 
      82        0.082    513.34414    1002.5217    25394.968 
      83        0.083    512.60536    1002.5217    25424.282 
      84        0.084    511.90204    1002.5217      25453.1 
      85        0.085     511.2499    1002.5217     25480.26 
      86        0.086    510.66389    1002.5217    25505.872 
      87        0.087     510.1579    1002.5217    25528.435 
      88        0.088    509.74445    1002.5217    25548.389 
      89        0.089    509.43484    1002.5217    25565.546 
      90         0.09    509.23867    1002.5217    25580.146 
      91        0.091    509.16371    1002.5217     25591.86 
      92        0.092    509.21583    1002.5217    25600.742 
      93        0.093    509.39892    1002.5217    25606.413 
      94        0.094    509.71507    1002.5217    25608.605 
      95        0.095    510.16467    1002.5217    25606.305 
      96        0.096    510.74638    1002.5217    25599.665 
      97        0.097    511.45711    1002.5217    25589.758 
      98        0.098    512.29225    1002.5217    25575.798 
      99        0.099    513.24586    1002.5217    25558.359 
     100          0.1    514.31072    1002.5217    25538.374 
Loop time of 1.80684 on 1 procs for 90 steps with 64 atoms

Performance: 4.304 ns/day, 5.577 hours/ns, 49.811 timesteps/s
100.0% CPU use with 1 MPI tasks x no OpenMP threads

MPI task timing breakdown:
Section |  min time  |  avg time  |  max time  |%varavg| %total
---------------------------------------------------------------
Pair    | 1.8058     | 1.8058     | 1.8058     |   0.0 | 99.94
Neigh   | 0.00019699 | 0.00019699 | 0.00019699 |   0.0 |  0.01
Comm    | 0.0002934  | 0.0002934  | 0.0002934  |   0.0 |  0.02
Output  | 0.00031807 | 0.00031807 | 0.00031807 |   0.0 |  0.02
Modify  | 0.00015753 | 0.00015753 | 0.00015753 |   0.0 |  0.01
Other   |            | 7.366e-05  |            |       |  0.00

Nlocal:        64.0000 ave          64 max          64 min
Histogram: 1 0 0 0 0 0 0 0 0 0
Nghost:        874.000 ave         874 max         874 min
Histogram: 1 0 0 0 0 0 0 0 0 0
Neighs:         0.00000 ave           0 max           0 min
Histogram: 1 0 0 0 0 0 0 0 0 0
FullNghs:      5922.00 ave        5922 max        5922 min
Histogram: 1 0 0 0 0 0 0 0 0 0

Total # of neighbors = 5922
Ave neighs/atom = 92.531250
Neighbor list builds = 1
Dangerous builds = 0
Setting up Verlet run ...
  Unit style    : metal
  Current step  : 100
  Time step     : 0.001
Per MPI rank memory allocation (min/avg/max) = 3.089 | 3.089 | 3.089 Mbytes
Step Time Temp Volume Press 
     100          0.1    514.31072    1002.5217    25538.374 
     110         0.11    529.05057    1002.5217    25192.072 
     120         0.12    545.64882    1002.5217    24745.106 
     130         0.13    562.09541    1002.5217    24327.017 
     140         0.14    579.56551    1002.5217    23991.381 
     150         0.15    592.86063    1002.5217    23912.168 
     160         0.16    595.80433    1002.5217    24264.867 
     170         0.17    594.09997    1002.5217    24800.248 
     180         0.18    602.08957    1002.5217      25026.5 
     190         0.19     626.1192    1002.5217    24762.824 
     200          0.2    654.33104    1002.5217    24267.035 
     210         0.21    665.29471    1002.5217    24210.576 
     220         0.22    648.80786    1002.5217    24910.603 
     230         0.23    621.36751    1002.5217    25819.505 
     240         0.24    618.65231    1002.5217    25903.005 
     250         0.25    663.62317    1002.5217    24624.194 
     260         0.26     741.3288    1002.5217    22461.989 
     270         0.27    807.43616    1002.5217    20667.486 
     280         0.28    822.28419    1002.5217    20372.633 
     290         0.29    782.80794    1002.5217    21701.465 
     300          0.3    724.88894    1002.5217     23728.48 
     310         0.31    690.77723    1002.5217    25139.578 
     320         0.32    690.16307    1002.5217    25666.703 
     330         0.33    701.66222    1002.5217    25768.394 
     340         0.34    709.18727    1002.5217    25858.224 
     350         0.35    714.85055    1002.5217    25938.851 
     360         0.36    721.95006    1002.5217    25909.295 
     370         0.37    725.07521    1002.5217    25797.647 
     380         0.38    722.07054    1002.5217    25669.366 
     390         0.39      721.825    1002.5217    25344.557 
     400          0.4    729.76466    1002.5217    24744.586 
     410         0.41    738.54887    1002.5217    24073.213 
     420         0.42    742.99094    1002.5217     23446.04 
     430         0.43    750.82136    1002.5217    22636.502 
     440         0.44    769.11417    1002.5217    21526.358 
     450         0.45    789.50834    1002.5217    20417.481 
     460         0.46    793.22122    1002.5217    19874.861 
     470         0.47     764.0212    1002.5217    20299.258 
     480         0.48    700.19943    1002.5217    21772.762 
     490         0.49    623.07671    1002.5217    23717.438 
     500          0.5    569.25273    1002.5217    25033.309 
     510         0.51    559.54613    1002.5217    25132.066 
     520         0.52    577.78103    1002.5217    24359.318 
     530         0.53      593.059    1002.5217    23559.105 
     540         0.54    590.54448    1002.5217    23204.725 
     550         0.55     576.4594    1002.5217    23253.945 
     560         0.56    568.50703    1002.5217    23117.246 
     570         0.57    584.59081    1002.5217    22194.593 
     580         0.58    629.44809    1002.5217    20416.281 
     590         0.59    683.78834    1002.5217    18373.827 
     600          0.6    719.23851    1002.5217     16946.16 
     610         0.61    725.44227    1002.5217    16440.345 
     620         0.62    712.38727    1002.5217    16705.351 
     630         0.63    694.66342    1002.5217    17294.765 
     640         0.64    680.74087    1002.5217    17880.307 
     650         0.65    671.21752    1002.5217    18395.479 
     660         0.66     660.9942    1002.5217    18983.515 
     670         0.67     645.5697    1002.5217    19756.457 
     680         0.68    627.61473    1002.5217    20592.828 
     690         0.69    614.47886    1002.5217    21243.108 
     700          0.7    610.87978    1002.5217    21624.424 
     710         0.71     612.9133    1002.5217    21880.511 
     720         0.72    611.55985    1002.5217    22249.961 
     730         0.73    605.17014    1002.5217     22694.42 
     740         0.74    603.33944    1002.5217    22963.662 
     750         0.75    616.34478    1002.5217    22756.876 
     760         0.76    645.03488    1002.5217    22057.627 
     770         0.77    680.00653    1002.5217     21114.33 
     780         0.78    706.27598    1002.5217    20351.367 
     790         0.79    713.87225    1002.5217    20177.296 
     800          0.8    707.74334    1002.5217      20410.3 
     810         0.81    701.83741    1002.5217    20775.836 
     820         0.82     704.0812    1002.5217    20977.894 
     830         0.83    716.16663    1002.5217    20703.852 
     840         0.84    737.67848    1002.5217    19996.921 
     850         0.85    764.89685    1002.5217    19030.689 
     860         0.86    791.59423    1002.5217    17985.833 
     870         0.87    808.83168    1002.5217    17215.816 
     880         0.88    803.16714    1002.5217    17258.237 
     890         0.89    761.38117    1002.5217    18510.515 
     900          0.9    690.36775    1002.5217    20572.318 
     910         0.91    626.47245    1002.5217    22405.666 
     920         0.92    600.89234    1002.5217    23118.726 
     930         0.93     614.0431    1002.5217    22635.946 
     940         0.94    646.46848    1002.5217    21549.421 
     950         0.95    671.91791    1002.5217    20621.893 
     960         0.96    673.43587    1002.5217    20401.175 
     970         0.97    653.01484    1002.5217    20871.784 
     980         0.98    625.69813    1002.5217    21525.916 
     990         0.99    608.86491    1002.5217    21864.765 
    1000            1     612.7678    1002.5217    21594.141 
Loop time of 18.1188 on 1 procs for 900 steps with 64 atoms

Performance: 4.292 ns/day, 5.592 hours/ns, 49.672 timesteps/s
100.0% CPU use with 1 MPI tasks x no OpenMP threads

MPI task timing breakdown:
Section |  min time  |  avg time  |  max time  |%varavg| %total
---------------------------------------------------------------
Pair    | 18.11      | 18.11      | 18.11      |   0.0 | 99.95
Neigh   | 0.003258   | 0.003258   | 0.003258   |   0.0 |  0.02
Comm    | 0.0029346  | 0.0029346  | 0.0029346  |   0.0 |  0.02
Output  | 0.00041883 | 0.00041883 | 0.00041883 |   0.0 |  0.00
Modify  | 0.0015387  | 0.0015387  | 0.0015387  |   0.0 |  0.01
Other   |            | 0.0006806  |            |       |  0.00

Nlocal:        64.0000 ave          64 max          64 min
Histogram: 1 0 0 0 0 0 0 0 0 0
Nghost:        876.000 ave         876 max         876 min
Histogram: 1 0 0 0 0 0 0 0 0 0
Neighs:         0.00000 ave           0 max           0 min
Histogram: 1 0 0 0 0 0 0 0 0 0
FullNghs:      5910.00 ave        5910 max        5910 min
Histogram: 1 0 0 0 0 0 0 0 0 0

Total # of neighbors = 5910
Ave neighs/atom = 92.343750
Neighbor list builds = 16
Dangerous builds = 0
Setting up Verlet run ...
  Unit style    : metal
  Current step  : 1000
  Time step     : 0.001
Per MPI rank memory allocation (min/avg/max) = 3.089 | 3.089 | 3.089 Mbytes
Step Time Temp Volume Press 
    1000            1     612.7678    1002.5217    21594.141 
    1100          1.1    728.49896    1002.5217    21137.676 
    1200          1.2    703.24456    1002.5217    30041.203 
    1300          1.3    673.57617    1002.5217    33542.797 
    1400          1.4    758.90898    1002.5217    25189.161 
    1500          1.5    674.57831    1002.5217    20942.369 
    1600          1.6    645.16591    1002.5217    19671.786 
    1700          1.7    575.57109    1002.5217    25999.791 
    1800          1.8    706.69688    1002.5217    28472.782 
    1900          1.9    821.63873    1002.5217    22455.731 
    2000            2    627.70547    1002.5217     22596.76 
    2100          2.1    684.60999    1002.5217    19884.772 
    2200          2.2    607.80351    1002.5217    25124.325 
    2300          2.3    775.87624    1002.5217    25447.577 
    2400          2.4    739.75841    1002.5217    27964.853 
    2500          2.5    685.13124    1002.5217    26925.627 
    2600          2.6    669.08536    1002.5217    23438.357 
    2700          2.7    729.02577    1002.5217     20623.05 
    2800          2.8    715.46477    1002.5217    20284.028 
    2900          2.9    717.78034    1002.5217    18072.412 
    3000            3    518.09179    1002.5217    24103.845 
    3100          3.1    568.29589    1002.5217    23937.989 
    3200          3.2    629.03102    1002.5217    27806.069 
    3300          3.3    834.87536    1002.5217    23005.925 
    3400          3.4    597.44066    1002.5217    27936.968 
    3500          3.5    672.20974    1002.5217    24161.903 
    3600          3.6    701.41151    1002.5217    22358.851 
    3700          3.7     511.7978    1002.5217    20021.421 
    3800          3.8    613.99904    1002.5217    17180.971 
    3900          3.9    743.32366    1002.5217     19128.81 
    4000            4    690.54127    1002.5217    22110.199 
    4100          4.1    685.50972    1002.5217     25659.58 
    4200          4.2    719.33059    1002.5217    34953.267 
    4300          4.3    869.30954    1002.5217    26273.924 
    4400          4.4    690.36369    1002.5217    24856.395 
    4500          4.5    731.91292    1002.5217    18717.232 
    4600          4.6    650.75072    1002.5217    19719.989 
    4700          4.7    728.72294    1002.5217    15905.594 
    4800          4.8    688.00954    1002.5217    22063.009 
    4900          4.9    713.39038    1002.5217     28844.76 
    5000            5    725.59723    1002.5217    30624.922 
    5100          5.1    745.13838    1002.5217    26170.612 
    5200          5.2    664.12418    1002.5217    20298.933 
    5300          5.3    673.36853    1002.5217     21585.18 
    5400          5.4    721.29809    1002.5217      24375.8 
    5500          5.5    647.36827    1002.5217    27608.708 
    5600          5.6     750.1756    1002.5217    26277.382 
    5700          5.7    725.27134    1002.5217    30509.834 
    5800          5.8    790.30263    1002.5217    22567.873 
    5900          5.9    633.58441    1002.5217    19636.014 
    6000            6     657.0766    1002.5217    22142.963 
    6100          6.1    759.18274    1002.5217    26113.402 
    6200          6.2    765.57171    1002.5217    26513.416 
    6300          6.3    732.44413    1002.5217    21689.309 
    6400          6.4    622.75701    1002.5217    20791.769 
    6500          6.5    683.13626    1002.5217    18953.943 
    6600          6.6    687.74149    1002.5217     19256.95 
    6700          6.7    706.85143    1002.5217    20556.973 
    6800          6.8    651.90733    1002.5217    26751.413 
    6900          6.9     689.2892    1002.5217    27759.142 
    7000            7    806.54168    1002.5217    25304.739 
    7100          7.1    692.53595    1002.5217    29062.767 
    7200          7.2    659.58881    1002.5217    24387.731 
    7300          7.3    671.73637    1002.5217    20897.593 
    7400          7.4    663.78943    1002.5217    21505.209 
    7500          7.5     651.9652    1002.5217    27776.393 
    7600          7.6    739.34364    1002.5217    33333.665 
    7700          7.7    719.86329    1002.5217    32165.421 
    7800          7.8    746.53699    1002.5217    22436.826 
    7900          7.9      754.593    1002.5217    18740.114 
    8000            8    674.88216    1002.5217    25462.437 
    8100          8.1    743.67522    1002.5217    26237.156 
    8200          8.2    791.08685    1002.5217    23462.232 
    8300          8.3    662.80037    1002.5217     19497.87 
    8400          8.4    651.25509    1002.5217    18317.882 
    8500          8.5    595.13508    1002.5217    22168.297 
    8600          8.6    600.71423    1002.5217    29118.905 
    8700          8.7    876.68016    1002.5217    21906.244 
    8800          8.8    719.86184    1002.5217    23333.417 
    8900          8.9    669.50245    1002.5217     21079.88 
    9000            9    587.65815    1002.5217    22820.966 
    9100          9.1    733.16594    1002.5217    18677.157 
    9200          9.2    766.82064    1002.5217    24848.697 
    9300          9.3     758.5125    1002.5217    27520.448 
    9400          9.4    830.15169    1002.5217    23425.852 
    9500          9.5     604.3468    1002.5217    24504.197 
    9600          9.6    686.29168    1002.5217    18310.093 
    9700          9.7    605.53418    1002.5217     19433.58 
    9800          9.8    639.01804    1002.5217    21218.987 
    9900          9.9    769.89917    1002.5217    23745.687 
   10000           10    676.78129    1002.5217    25819.039 
Loop time of 178.606 on 1 procs for 9000 steps with 64 atoms

Performance: 4.354 ns/day, 5.513 hours/ns, 50.390 timesteps/s
100.0% CPU use with 1 MPI tasks x no OpenMP threads

MPI task timing breakdown:
Section |  min time  |  avg time  |  max time  |%varavg| %total
---------------------------------------------------------------
Pair    | 178.52     | 178.52     | 178.52     |   0.0 | 99.95
Neigh   | 0.032892   | 0.032892   | 0.032892   |   0.0 |  0.02
Comm    | 0.028992   | 0.028992   | 0.028992   |   0.0 |  0.02
Output  | 0.00058315 | 0.00058315 | 0.00058315 |   0.0 |  0.00
Modify  | 0.01494    | 0.01494    | 0.01494    |   0.0 |  0.01
Other   |            | 0.006683   |            |       |  0.00

Nlocal:        64.0000 ave          64 max          64 min
Histogram: 1 0 0 0 0 0 0 0 0 0
Nghost:        859.000 ave         859 max         859 min
Histogram: 1 0 0 0 0 0 0 0 0 0
Neighs:         0.00000 ave           0 max           0 min
Histogram: 1 0 0 0 0 0 0 0 0 0
FullNghs:      5882.00 ave        5882 max        5882 min
Histogram: 1 0 0 0 0 0 0 0 0 0

Total # of neighbors = 5882
Ave neighs/atom = 91.906250
Neighbor list builds = 164
Dangerous builds = 0
System init for write_data ...
Total wall time: 0:03:18
