LAMMPS data file via write_data, version 29 Sep 2021, timestep = 10000

64 atoms
1 atom types

0 10.519999999999747 xlo xhi
0 9.110587247812074 ylo yhi
0 10.46 zlo zhi
0 0 0 xy xz yz

Masses

1 65.38

Atoms # atomic

1 1 1.183341322063603 5.52506152377134 4.180176026839359 0 0 0
2 1 1.5617368420540234 5.249386160196405 9.224223073231391 0 0 0
3 1 10.4673873120221 8.053580112139711 3.8843624964735537 -1 0 0
4 1 0.034917680108231 7.697985820110906 9.765021516553029 0 0 0
5 1 6.284684811989957 0.7293442220456977 3.718013122048391 0 0 0
6 1 6.7167371997068495 0.2790707416127167 8.921076092100858 0 0 0
7 1 5.573076887157302 3.055734898385886 4.3390129619366045 0 0 0
8 1 5.4142565650252354 2.7659527139178155 9.613500423856129 0 0 0
9 1 1.4416368442801766 1.085329208560072 4.279473799454287 0 0 0
10 1 1.328441981791659 0.9602068303944747 8.940795956970277 0 0 0
11 1 0.11755054696917165 3.0919858863395415 3.5961576795285572 0 0 0
12 1 0.05978470603932332 3.175359291450867 8.586230895231449 0 0 0
13 1 3.726727728691262 1.1086051454653758 3.4309795479769507 0 0 0
14 1 3.92243485722022 0.8020786328375507 9.331304471869327 0 0 0
15 1 2.5680393316384613 3.3505986654586613 3.6525743180939303 0 0 0
16 1 2.801091087635591 3.155964208938582 9.096646293993144 0 0 0
17 1 6.280205085181987 5.340644491074831 3.919337362728543 0 0 0
18 1 6.542094329827956 5.049470424074863 8.89353068576614 0 0 0
19 1 5.0999940221324 7.750638238817103 4.230812335476372 0 0 0
20 1 5.303948745855884 7.498186953229435 9.702442158143207 0 0 0
21 1 8.997679517285373 5.877696043666507 3.606838498568317 0 0 0
22 1 9.052613284496859 5.0167165950751595 9.183297449437093 0 0 0
23 1 7.52699664433032 7.716551681646894 3.7814244854716 0 0 0
24 1 8.222801367052874 7.2921811492364705 8.465908307457022 0 0 0
25 1 3.7650846062646464 5.642586888498664 4.154228403070726 0 0 0
26 1 4.034914748977587 5.434529863963804 9.163402124893768 0 0 0
27 1 2.5821921772871548 8.021512574384056 4.182478030541611 0 0 0
28 1 2.734181008121439 7.850851165957127 9.44623235956631 0 0 0
29 1 9.194616550622843 1.0565203073606901 3.5387756556184207 0 0 0
30 1 9.23321896347608 0.7291177701837789 9.058943122740995 0 0 0
31 1 7.785241352253979 3.2178193325502202 3.7445608862665565 0 0 0
32 1 8.09894352027804 2.79305143456301 9.382110089672109 0 0 0
33 1 5.228410786549883 1.325884135320319 1.4563675086238377 0 0 0
34 1 5.30851946676931 1.2124008999738647 6.209727110757197 0 0 0
35 1 4.087931390433015 3.735875109568062 1.5234077831208017 0 0 0
36 1 4.1435984445386165 3.5790698911945538 6.474309502694202 0 0 0
37 1 2.7630330528519487 5.942279937826213 1.6997431367312692 0 0 0
38 1 2.598919565210072 5.997222661240513 6.745774417168045 0 0 0
39 1 1.1435200373712249 8.452976288106518 1.3160414820928763 0 0 0
40 1 1.3003734309702906 8.036553173083398 6.470736191490747 0 0 0
41 1 10.37965388635383 1.686245730130023 0.7511142686764943 -1 0 0
42 1 10.357403066559476 1.4936314581802992 6.410885660030445 -1 0 0
43 1 2.238500723224962 1.515717076468445 1.4392812459888562 0 0 0
44 1 2.638779844762425 1.4207699513491796 6.823710919794654 0 0 0
45 1 1.4518441389538106 3.83070176425846 0.7467630074469233 0 0 0
46 1 1.49231719264462 3.5708074825187794 6.165679457343916 0 0 0
47 1 0.12512502610071916 5.890740652612248 1.5914084857736326 0 0 0
48 1 10.518836286020067 6.1929764115126495 7.550519203054353 -1 0 0
49 1 9.23226043432474 3.8006278158846243 1.5097761021259524 0 0 0
50 1 9.460091985457566 3.925050278593802 5.845402143776903 0 0 0
51 1 7.817441976799272 6.097531172781308 0.9679855570406142 0 0 0
52 1 8.0669819420383 6.003015544437799 6.025362279896935 0 0 0
53 1 6.648259439541395 8.356182258595249 1.529262116546989 0 0 0
54 1 6.506451665776418 7.986279637887721 6.660098509620879 0 0 0
55 1 9.254080963066787 7.953652921378047 1.6096945584968694 0 0 0
56 1 9.150855665196296 8.409722964813051 6.181359498599474 0 0 0
57 1 7.68495447882078 1.3262814197088386 1.1629355017543588 0 0 0
58 1 7.652005969411016 1.3258958350055121 6.275957641153666 0 0 0
59 1 6.497070033820606 3.650262840791089 1.2526156986139512 0 0 0
60 1 6.991595839250748 3.907071455919114 6.89228030748631 0 0 0
61 1 5.248710692391878 6.087575944896497 1.3393390940783487 0 0 0
62 1 5.165714990627762 5.87720826279727 6.489848182145055 0 0 0
63 1 3.695638747637686 8.365181728308807 1.2980057547098525 0 0 0
64 1 4.134547208677016 8.209080248936878 7.290737041588698 0 0 0

Velocities

1 3.3013693118969694 1.460959851165308 4.008932551821919
2 -4.873445801539795 -0.23069875170132711 4.311415087498788
3 -1.1269081558330518 1.8775550450455496 -1.154055314761317
4 -1.8070999922440003 -1.2059746628486558 5.119779857542865
5 2.6934767609162127 2.5688693665573585 -8.71638904394292
6 0.7081592152708639 -5.632888953052726 -2.0362163491670904
7 -2.193357285014977 1.6812056278356065 -4.482302868200588
8 2.373933562721271 -0.6181307224338893 -2.3658613661914614
9 -0.15737200510218408 1.744258755519599 0.4014580830830302
10 2.374411772465647 2.417546010464674 -1.2187328305748863
11 2.143843725234789 -1.9004960190817595 2.5485780052405302
12 1.7839586700919263 -1.7431319819864664 -0.6218273356753694
13 2.416518002369851 -1.0207218785654222 -0.23522972828539662
14 1.2226178842796664 0.33779867281496306 0.4381307882448665
15 -1.4618365437765668 0.6618189636385122 2.31823423945691
16 0.35395661566409947 -5.1933907734096945 -1.3870762254265359
17 -1.862268203237801 -0.7768220871113919 1.0212141578539347
18 2.703795714063367 -1.6318550865735462 -4.838533970545008
19 -3.619142588776568 0.4913751289156964 -0.6571263152415191
20 0.1949201562618144 1.126154344549903 -0.9485644845028864
21 0.20371304727849796 0.6760999678489302 -0.17913315641980065
22 -2.3824284437497782 -2.562214970035831 0.7682874994655243
23 2.3866400023954175 4.75810545681176 -6.1452463999137885
24 1.8034516691274098 1.1298289401559531 -3.70336313707474
25 3.336614625536219 -1.2781925709874549 -1.1738503951311106
26 5.060704001200418 -1.3356417376733765 0.08842624863677431
27 -1.4699854166465198 2.162380107107671 6.65965050771458
28 -2.007998185907414 -1.556500137509557 -0.6898978549697061
29 -0.6644586951788551 3.6403782118456083 -4.8779733534877625
30 1.7156813443702414 -1.6451317893658164 -4.011035660912326
31 -3.245438729389564 0.09867929838290661 4.780705065827085
32 -5.509720356407445 -0.2961992996992973 -4.728366513764281
33 3.0027545484245293 7.04936558795588 0.9995766147078248
34 3.8395137638942347 2.1398929129059905 -1.4397490667350594
35 -3.6050076472375334 5.502290534412777 3.760632529561663
36 2.3456739919083236 5.590760272142337 -4.018738568374152
37 2.963230659965269 -0.1551588847613145 0.0651730112529073
38 -2.365815326450342 4.20789061766543 -0.012180911921365051
39 0.7120662629777808 -0.8221706727430187 -1.7407286364876253
40 2.3198528102668967 0.580474628902127 1.3628370430859984
41 -3.7804806092536487 -0.16505225209491575 -3.2112664394904784
42 -0.6332644018943852 1.0124873932888072 0.1991848787437505
43 1.239836693449654 0.5676272711266638 3.6982622379888115
44 -2.0341617359710957 3.3946693278085536 0.6063711205854581
45 -1.5510321555049573 -1.4167391082371128 -1.2882815738525755
46 -2.574744235933722 -1.80994826489081 1.2474492576367724
47 2.762455411287786 0.03366557336738616 0.7032740288572298
48 1.9723984050723988 -1.6262811680705258 1.8153069775730426
49 0.6137030687078839 -0.7927899371353347 1.369911237691925
50 1.746323384414362 1.2139736174131954 0.8193761005445281
51 1.3553130258333332 0.29790196187625245 0.043124876206568005
52 2.771243783462713 0.6911736965323837 6.656832133344636
53 1.801486425041328 -5.945105608377697 -1.6672921376687548
54 -3.4983255242700557 -2.3671089538609005 1.7033524549898433
55 -4.481204994757823 -5.143926077385502 -1.1754446838245476
56 0.7198076458773629 3.604299246902287 -2.200928971662604
57 -6.165489047005869 -1.0711967132233216 3.152990722030353
58 3.0950657072759027 1.8921762110809208 5.323190960720244
59 -1.476983946301733 -7.866823319241528 -1.5409332074632742
60 -3.113330768522035 2.0390588861347205 3.9982995225571765
61 4.512681606322042 -1.6284786188515996 -0.30909255073141134
62 -5.496762206999167 -5.6434680666711925 1.3545719487312975
63 -0.29111570876126575 -6.349532060400271 -1.867781347474399
64 -1.1019945636585755 4.781049639805122 3.2986706506774763
