ITEM: TIMESTEP
10000
ITEM: NUMBER OF ATOMS
64
ITEM: BOX BOUNDS xy xz yz pp pp pp
0.0000000000000000e+00 1.0519999999999747e+01 0.0000000000000000e+00
0.0000000000000000e+00 9.1105872478120737e+00 0.0000000000000000e+00
0.0000000000000000e+00 1.0460000000000001e+01 0.0000000000000000e+00
ITEM: ATOMS id type x y z
1 1 1.18334 5.52506 4.18018
2 1 1.56174 5.24939 9.22422
3 1 10.4674 8.05358 3.88436
4 1 0.0349177 7.69799 9.76502
5 1 6.28468 0.729344 3.71801
6 1 6.71674 0.279071 8.92108
7 1 5.57308 3.05573 4.33901
8 1 5.41426 2.76595 9.6135
9 1 1.44164 1.08533 4.27947
10 1 1.32844 0.960207 8.9408
11 1 0.117551 3.09199 3.59616
12 1 0.0597847 3.17536 8.58623
13 1 3.72673 1.10861 3.43098
14 1 3.92243 0.802079 9.3313
15 1 2.56804 3.3506 3.65257
16 1 2.80109 3.15596 9.09665
17 1 6.28021 5.34064 3.91934
18 1 6.54209 5.04947 8.89353
19 1 5.09999 7.75064 4.23081
20 1 5.30395 7.49819 9.70244
21 1 8.99768 5.8777 3.60684
22 1 9.05261 5.01672 9.1833
23 1 7.527 7.71655 3.78142
24 1 8.2228 7.29218 8.46591
25 1 3.76508 5.64259 4.15423
26 1 4.03491 5.43453 9.1634
27 1 2.58219 8.02151 4.18248
28 1 2.73418 7.85085 9.44623
29 1 9.19462 1.05652 3.53878
30 1 9.23322 0.729118 9.05894
31 1 7.78524 3.21782 3.74456
32 1 8.09894 2.79305 9.38211
33 1 5.22841 1.32588 1.45637
34 1 5.30852 1.2124 6.20973
35 1 4.08793 3.73588 1.52341
36 1 4.1436 3.57907 6.47431
37 1 2.76303 5.94228 1.69974
38 1 2.59892 5.99722 6.74577
39 1 1.14352 8.45298 1.31604
40 1 1.30037 8.03655 6.47074
41 1 10.3797 1.68625 0.751114
42 1 10.3574 1.49363 6.41089
43 1 2.2385 1.51572 1.43928
44 1 2.63878 1.42077 6.82371
45 1 1.45184 3.8307 0.746763
46 1 1.49232 3.57081 6.16568
47 1 0.125125 5.89074 1.59141
48 1 10.5188 6.19298 7.55052
49 1 9.23226 3.80063 1.50978
50 1 9.46009 3.92505 5.8454
51 1 7.81744 6.09753 0.967986
52 1 8.06698 6.00302 6.02536
53 1 6.64826 8.35618 1.52926
54 1 6.50645 7.98628 6.6601
55 1 9.25408 7.95365 1.60969
56 1 9.15086 8.40972 6.18136
57 1 7.68495 1.32628 1.16294
58 1 7.65201 1.3259 6.27596
59 1 6.49707 3.65026 1.25262
60 1 6.9916 3.90707 6.89228
61 1 5.24871 6.08758 1.33934
62 1 5.16571 5.87721 6.48985
63 1 3.69564 8.36518 1.29801
64 1 4.13455 8.20908 7.29074
