 # Something
 64 atoms
 1 atom types
 0   10.519999999999747      xlo xhi 
 0   9.1105872478120737      ylo yhi 
 0   10.460000000000001      zlo zhi 
   0.0000000000000000        0.0000000000000000        0.0000000000000000      xy xz yz
 Atoms
 
           1           1   1.3149999999999684        5.3145092278903769        3.9225000000000003     
           2           1   1.3149999999999684        5.3145092278903769        9.1524999999999999     
           3           1   0.0000000000000000        7.5921560398433954        3.9225000000000003     
           4           1   0.0000000000000000        7.5921560398433954        9.1524999999999999     
           5           1   6.5749999999998421       0.75921560398433940        3.9225000000000003     
           6           1   6.5749999999998421       0.75921560398433940        9.1524999999999999     
           7           1   5.2599999999998737        3.0368624159373576        3.9225000000000003     
           8           1   5.2599999999998737        3.0368624159373576        9.1524999999999999     
           9           1   1.3149999999999684       0.75921560398433940        3.9225000000000003     
          10           1   1.3149999999999684       0.75921560398433940        9.1524999999999999     
          11           1   0.0000000000000000        3.0368624159373576        3.9225000000000003     
          12           1   0.0000000000000000        3.0368624159373576        9.1524999999999999     
          13           1   3.9449999999999052       0.75921560398433940        3.9225000000000003     
          14           1   3.9449999999999052       0.75921560398433940        9.1524999999999999     
          15           1   2.6299999999999368        3.0368624159373576        3.9225000000000003     
          16           1   2.6299999999999368        3.0368624159373576        9.1524999999999999     
          17           1   6.5749999999998421        5.3145092278903769        3.9225000000000003     
          18           1   6.5749999999998421        5.3145092278903769        9.1524999999999999     
          19           1   5.2599999999998737        7.5921560398433954        3.9225000000000003     
          20           1   5.2599999999998737        7.5921560398433954        9.1524999999999999     
          21           1   9.2049999999997780        5.3145092278903769        3.9225000000000003     
          22           1   9.2049999999997780        5.3145092278903769        9.1524999999999999     
          23           1   7.8899999999998105        7.5921560398433954        3.9225000000000003     
          24           1   7.8899999999998105        7.5921560398433954        9.1524999999999999     
          25           1   3.9449999999999052        5.3145092278903769        3.9225000000000003     
          26           1   3.9449999999999052        5.3145092278903769        9.1524999999999999     
          27           1   2.6299999999999368        7.5921560398433954        3.9225000000000003     
          28           1   2.6299999999999368        7.5921560398433954        9.1524999999999999     
          29           1   9.2049999999997780       0.75921560398433940        3.9225000000000003     
          30           1   9.2049999999997780       0.75921560398433940        9.1524999999999999     
          31           1   7.8899999999998105        3.0368624159373576        3.9225000000000003     
          32           1   7.8899999999998105        3.0368624159373576        9.1524999999999999     
          33           1   5.2599999999998737        1.5184312079686795        1.3075000000000001     
          34           1   5.2599999999998737        1.5184312079686795        6.5375000000000005     
          35           1   3.9449999999999052        3.7960780199216977        1.3075000000000001     
          36           1   3.9449999999999052        3.7960780199216977        6.5375000000000005     
          37           1   2.6299999999999368        6.0737248318747161        1.3075000000000001     
          38           1   2.6299999999999368        6.0737248318747161        6.5375000000000005     
          39           1   1.3149999999999684        8.3513716438277346        1.3075000000000001     
          40           1   1.3149999999999684        8.3513716438277346        6.5375000000000005     
          41           1   0.0000000000000000        1.5184312079686795        1.3075000000000001     
          42           1   0.0000000000000000        1.5184312079686795        6.5375000000000005     
          43           1   2.6299999999999368        1.5184312079686795        1.3075000000000001     
          44           1   2.6299999999999368        1.5184312079686795        6.5375000000000005     
          45           1   1.3149999999999684        3.7960780199216977        1.3075000000000001     
          46           1   1.3149999999999684        3.7960780199216977        6.5375000000000005     
          47           1   0.0000000000000000        6.0737248318747161        1.3075000000000001     
          48           1   0.0000000000000000        6.0737248318747161        6.5375000000000005     
          49           1   9.2049999999997780        3.7960780199216977        1.3075000000000001     
          50           1   9.2049999999997780        3.7960780199216977        6.5375000000000005     
          51           1   7.8899999999998105        6.0737248318747161        1.3075000000000001     
          52           1   7.8899999999998105        6.0737248318747161        6.5375000000000005     
          53           1   6.5749999999998421        8.3513716438277346        1.3075000000000001     
          54           1   6.5749999999998421        8.3513716438277346        6.5375000000000005     
          55           1   9.2049999999997780        8.3513716438277346        1.3075000000000001     
          56           1   9.2049999999997780        8.3513716438277346        6.5375000000000005     
          57           1   7.8899999999998105        1.5184312079686795        1.3075000000000001     
          58           1   7.8899999999998105        1.5184312079686795        6.5375000000000005     
          59           1   6.5749999999998421        3.7960780199216977        1.3075000000000001     
          60           1   6.5749999999998421        3.7960780199216977        6.5375000000000005     
          61           1   5.2599999999998737        6.0737248318747161        1.3075000000000001     
          62           1   5.2599999999998737        6.0737248318747161        6.5375000000000005     
          63           1   3.9449999999999052        8.3513716438277346        1.3075000000000001     
          64           1   3.9449999999999052        8.3513716438277346        6.5375000000000005     
