 # Something
 8 atoms
 1 atom types
 0   5.3219999999999992      xlo xhi 
 0   4.6089871989407829      ylo yhi 
 0   5.1810000000000000      zlo zhi 
   0.0000000000000000        0.0000000000000000        0.0000000000000000      xy xz yz
 Atoms
 
           1           1   2.6609999999999996        3.0726581326271889        3.8857499999999998     
           2           1   3.9914999999999994       0.76816453315679734        3.8857499999999998     
           3           1   0.0000000000000000        3.0726581326271889        3.8857499999999998     
           4           1   1.3304999999999998       0.76816453315679734        3.8857499999999998     
           5           1   3.9914999999999994        3.8408226657839859        1.2952500000000000     
           6           1   1.3304999999999998        3.8408226657839859        1.2952500000000000     
           7           1   2.6609999999999996        1.5363290663135942        1.2952500000000000     
           8           1   0.0000000000000000        1.5363290663135942        1.2952500000000000     
