LAMMPS (29 Sep 2021 - Update 1)
Reading data file ...
  triclinic box = (0.0000000 0.0000000 0.0000000) to (10.560000 9.1452283 10.220000) with tilt (0.0000000 0.0000000 0.0000000)
  1 by 1 by 1 MPI processor grid
  reading atoms ...
  64 atoms
  read_data CPU = 0.001 seconds
Neighbor list info ...
  update every 1 steps, delay 0 steps, check yes
  max neighbors/atom: 2000, page size: 100000
  master list distance cutoff = 7
  ghost atom cutoff = 7
  binsize = 3.5, bins = 4 3 3
  1 neighbor lists, perpetual/occasional/extra = 1 0 0
  (1) pair mlip, perpetual
      attributes: full, newton on
      pair build: full/bin/atomonly
      stencil: full/bin/3d
      bin: standard
Setting up Verlet run ...
  Unit style    : metal
  Current step  : 0
  Time step     : 0.001
Per MPI rank memory allocation (min/avg/max) = 3.089 | 3.089 | 3.089 Mbytes
Step Time Temp Volume Press 
       0            0         1380     986.9823    415.38983 
       1        0.001     1379.074     986.9823    446.25976 
       2        0.002     1376.299     986.9823    538.81212 
       3        0.003    1371.6848     986.9823    692.78985 
       4        0.004    1365.2496     986.9823    907.10119 
       5        0.005    1357.0197     986.9823    1180.3159 
       6        0.006    1347.0306     986.9823    1506.5197 
       7        0.007    1335.3265     986.9823    1886.2323 
       8        0.008    1321.9585     986.9823    2318.7955 
       9        0.009    1306.9851     986.9823    2801.8909 
      10         0.01    1290.4725     986.9823    3333.3984 
Loop time of 0.211736 on 1 procs for 10 steps with 64 atoms

Performance: 4.081 ns/day, 5.882 hours/ns, 47.229 timesteps/s
98.0% CPU use with 1 MPI tasks x no OpenMP threads

MPI task timing breakdown:
Section |  min time  |  avg time  |  max time  |%varavg| %total
---------------------------------------------------------------
Pair    | 0.21162    | 0.21162    | 0.21162    |   0.0 | 99.95
Neigh   | 0          | 0          | 0          |   0.0 |  0.00
Comm    | 3.4267e-05 | 3.4267e-05 | 3.4267e-05 |   0.0 |  0.02
Output  | 4.3195e-05 | 4.3195e-05 | 4.3195e-05 |   0.0 |  0.02
Modify  | 2.6793e-05 | 2.6793e-05 | 2.6793e-05 |   0.0 |  0.01
Other   |            | 1.201e-05  |            |       |  0.01

Nlocal:        64.0000 ave          64 max          64 min
Histogram: 1 0 0 0 0 0 0 0 0 0
Nghost:        886.000 ave         886 max         886 min
Histogram: 1 0 0 0 0 0 0 0 0 0
Neighs:         0.00000 ave           0 max           0 min
Histogram: 1 0 0 0 0 0 0 0 0 0
FullNghs:      6272.00 ave        6272 max        6272 min
Histogram: 1 0 0 0 0 0 0 0 0 0

Total # of neighbors = 6272
Ave neighs/atom = 98.000000
Neighbor list builds = 0
Dangerous builds = 0
Setting up Verlet run ...
  Unit style    : metal
  Current step  : 10
  Time step     : 0.001
Per MPI rank memory allocation (min/avg/max) = 3.089 | 3.089 | 3.089 Mbytes
Step Time Temp Volume Press 
      10         0.01    1290.4725     986.9823    3333.3984 
      11        0.011    1272.4933     986.9823    3914.0655 
      12        0.012    1253.1271     986.9823    4542.0429 
      13        0.013    1232.4599     986.9823    5214.9825 
      14        0.014    1210.5842     986.9823    5929.6143 
      15        0.015    1187.5986     986.9823    6684.0646 
      16        0.016    1163.6069     986.9823    7475.3875 
      17        0.017     1138.717     986.9823    8297.7521 
      18        0.018    1113.0409     986.9823    9149.3555 
      19        0.019    1086.6946     986.9823    10023.009 
      20         0.02    1059.7968     986.9823    10913.695 
      21        0.021    1032.4691     986.9823    11818.394 
      22        0.022    1004.8349     986.9823    12733.067 
      23        0.023    977.01948     986.9823     13656.11 
      24        0.024    949.14857     986.9823    14581.612 
      25        0.025    921.34702     986.9823    15506.347 
      26        0.026    893.73854     986.9823    16427.391 
      27        0.027    866.44467     986.9823    17341.416 
      28        0.028    839.58369     986.9823    18244.336 
      29        0.029    813.26951     986.9823    19132.716 
      30         0.03    787.61036     986.9823    20000.425 
      31        0.031    762.70814     986.9823     20845.71 
      32        0.032    738.65785     986.9823    21663.821 
      33        0.033    715.54685     986.9823    22454.248 
      34        0.034    693.45437     986.9823     23214.71 
      35        0.035    672.45075     986.9823    23943.364 
      36        0.036    652.59659     986.9823    24636.489 
      37        0.037    633.94231     986.9823    25292.422 
      38        0.038    616.52813     986.9823    25909.649 
      39        0.039    600.38396     986.9823    26488.141 
      40         0.04    585.52924     986.9823    27026.827 
      41        0.041    571.97291     986.9823    27525.389 
      42        0.042    559.71345     986.9823    27982.726 
      43        0.043      548.739     986.9823    28398.324 
      44        0.044    539.02768     986.9823    28770.729 
      45        0.045    530.54846     986.9823    29103.495 
      46        0.046    523.26202     986.9823    29397.292 
      47        0.047    517.12084     986.9823    29652.184 
      48        0.048    512.07004     986.9823    29870.755 
      49        0.049    508.04833     986.9823    30054.929 
      50         0.05    504.98869     986.9823    30206.374 
      51        0.051    502.81919     986.9823    30327.293 
      52        0.052    501.46365     986.9823    30417.736 
      53        0.053    500.84255     986.9823    30481.482 
      54        0.054    500.87418     986.9823    30520.346 
      55        0.055    501.47537     986.9823    30536.676 
      56        0.056    502.56235     986.9823    30533.828 
      57        0.057    504.05169     986.9823    30515.394 
      58        0.058    505.86108     986.9823    30483.976 
      59        0.059     507.9098     986.9823    30441.958 
      60         0.06    510.11937     986.9823    30391.284 
      61        0.061    512.41471     986.9823    30333.523 
      62        0.062    514.72461     986.9823    30271.857 
      63        0.063    516.98199     986.9823    30208.644 
      64        0.064    519.12447     986.9823    30146.437 
      65        0.065    521.09484     986.9823     30087.81 
      66        0.066    522.84144     986.9823    30033.196 
      67        0.067    524.31855     986.9823    29985.442 
      68        0.068    525.48649     986.9823     29946.15 
      69        0.069    526.31175     986.9823    29915.848 
      70         0.07    526.76708     986.9823    29894.534 
      71        0.071    526.83164     986.9823    29884.883 
      72        0.072    526.49099     986.9823    29886.417 
      73        0.073    525.73714     986.9823    29900.656 
      74        0.074    524.56826     986.9823    29928.515 
      75        0.075    522.98842     986.9823    29969.743 
      76        0.076    521.00736     986.9823    30019.457 
      77        0.077    518.64026     986.9823     30079.96 
      78        0.078    515.90751     986.9823    30150.888 
      79        0.079    512.83407     986.9823    30231.457 
      80         0.08    509.44924     986.9823    30322.053 
      81        0.081    505.78619     986.9823    30420.029 
      82        0.082    501.88138     986.9823    30525.633 
      83        0.083    497.77413     986.9823    30638.656 
      84        0.084    493.50599     986.9823    30757.793 
      85        0.085    489.12016     986.9823    30881.109 
      86        0.086    484.66107     986.9823    31007.339 
      87        0.087    480.17386     986.9823    31134.811 
      88        0.088    475.70375     986.9823     31262.02 
      89        0.089    471.29535     986.9823    31387.814 
      90         0.09    466.99229     986.9823    31510.544 
      91        0.091     462.8369     986.9823    31630.033 
      92        0.092    458.86965     986.9823    31743.736 
      93        0.093    455.12873     986.9823    31850.863 
      94        0.094    451.64985     986.9823    31950.501 
      95        0.095    448.46616     986.9823    32042.778 
      96        0.096    445.60784     986.9823    32126.071 
      97        0.097    443.10163     986.9823    32199.973 
      98        0.098     440.9709     986.9823    32262.774 
      99        0.099     439.2357     986.9823    32314.619 
     100          0.1    437.91249     986.9823    32354.459 
Loop time of 1.85636 on 1 procs for 90 steps with 64 atoms

Performance: 4.189 ns/day, 5.730 hours/ns, 48.482 timesteps/s
99.9% CPU use with 1 MPI tasks x no OpenMP threads

MPI task timing breakdown:
Section |  min time  |  avg time  |  max time  |%varavg| %total
---------------------------------------------------------------
Pair    | 1.8553     | 1.8553     | 1.8553     |   0.0 | 99.94
Neigh   | 0.00019867 | 0.00019867 | 0.00019867 |   0.0 |  0.01
Comm    | 0.0002997  | 0.0002997  | 0.0002997  |   0.0 |  0.02
Output  | 0.00032087 | 0.00032087 | 0.00032087 |   0.0 |  0.02
Modify  | 0.00015773 | 0.00015773 | 0.00015773 |   0.0 |  0.01
Other   |            | 8.216e-05  |            |       |  0.00

Nlocal:        64.0000 ave          64 max          64 min
Histogram: 1 0 0 0 0 0 0 0 0 0
Nghost:        886.000 ave         886 max         886 min
Histogram: 1 0 0 0 0 0 0 0 0 0
Neighs:         0.00000 ave           0 max           0 min
Histogram: 1 0 0 0 0 0 0 0 0 0
FullNghs:      5912.00 ave        5912 max        5912 min
Histogram: 1 0 0 0 0 0 0 0 0 0

Total # of neighbors = 5912
Ave neighs/atom = 92.375000
Neighbor list builds = 1
Dangerous builds = 0
Setting up Verlet run ...
  Unit style    : metal
  Current step  : 100
  Time step     : 0.001
Per MPI rank memory allocation (min/avg/max) = 3.089 | 3.089 | 3.089 Mbytes
Step Time Temp Volume Press 
     100          0.1    437.91249     986.9823    32354.459 
     110         0.11    448.52584     986.9823    31999.377 
     120         0.12    495.29199     986.9823      30505.8 
     130         0.13    555.05256     986.9823    28577.504 
     140         0.14    603.08588     986.9823     27052.15 
     150         0.15    627.72505     986.9823    26348.674 
     160         0.16    634.64041     986.9823    26318.832 
     170         0.17     637.7457     986.9823    26590.643 
     180         0.18    645.91839     986.9823    26863.355 
     190         0.19    657.90813     986.9823    26994.036 
     200          0.2    668.92713     986.9823     27052.99 
     210         0.21    680.87791     986.9823    26928.259 
     220         0.22    699.93907     986.9823    26577.982 
     230         0.23    722.53605     986.9823    26222.682 
     240         0.24    739.13316     986.9823    26137.162 
     250         0.25    757.16333     986.9823    26073.645 
     260         0.26    783.72774     986.9823    25826.571 
     270         0.27    798.66396     986.9823    25957.367 
     280         0.28    783.22697     986.9823    26963.679 
     290         0.29    737.14893     986.9823    28857.073 
     300          0.3    674.89132     986.9823    31067.267 
     310         0.31    628.64585     986.9823    32439.669 
     320         0.32     639.0095     986.9823    31831.655 
     330         0.33    713.21472     986.9823    29135.232 
     340         0.34    804.28899     986.9823    25796.021 
     350         0.35    856.65268     986.9823    23639.451 
     360         0.36    844.49439     986.9823    23587.258 
     370         0.37    776.90328     986.9823    25386.509 
     380         0.38    692.75608     986.9823    27842.614 
     390         0.39    636.37949     986.9823     29508.92 
     400          0.4    622.01404     986.9823    29832.282 
     410         0.41    625.35753     986.9823    29462.413 
     420         0.42    617.43986     986.9823    29083.499 
     430         0.43    602.83634     986.9823     28648.32 
     440         0.44    610.58133     986.9823    27473.972 
     450         0.45    652.44504     986.9823    25301.265 
     460         0.46    708.08762     986.9823    22832.857 
     470         0.47    744.82125     986.9823    21059.243 
     480         0.48    742.02341     986.9823    20612.402 
     490         0.49    706.37151     986.9823    21302.498 
     500          0.5    664.70085     986.9823    22381.535 
     510         0.51    632.55965     986.9823    23337.392 
     520         0.52    601.08627     986.9823    24222.894 
     530         0.53     562.1641     986.9823    25266.625 
     540         0.54    520.78671     986.9823    26371.241 
     550         0.55    485.57791     986.9823    27310.224 
     560         0.56    465.34151     986.9823    27817.646 
     570         0.57    463.99826     986.9823    27752.231 
     580         0.58    480.67758     986.9823    27096.228 
     590         0.59    516.31136     986.9823    25854.338 
     600          0.6     568.2663     986.9823     24202.38 
     610         0.61    624.71646     986.9823    22634.229 
     620         0.62    673.06992     986.9823     21545.54 
     630         0.63    706.26881     986.9823    21262.627 
     640         0.64    718.12515     986.9823    21924.817 
     650         0.65    707.00141     986.9823    23434.829 
     660         0.66    683.85112     986.9823    25330.492 
     670         0.67    668.01473     986.9823    26948.166 
     680         0.68    674.73434     986.9823    27730.656 
     690         0.69    705.86814     986.9823    27591.524 
     700          0.7     749.0816     986.9823     26940.36 
     710         0.71    787.66469     986.9823    26356.121 
     720         0.72    809.08628     986.9823    26275.581 
     730         0.73    807.92282     986.9823     26938.34 
     740         0.74    783.43586     986.9823    28409.809 
     750         0.75    736.11729     986.9823    30597.494 
     760         0.76    674.97062     986.9823    32979.409 
     770         0.77    626.37837     986.9823    34764.982 
     780         0.78    618.56992     986.9823    35171.788 
     790         0.79    656.19064     986.9823    34166.905 
     800          0.8     715.2987     986.9823    32499.956 
     810         0.81    759.58362     986.9823    31150.972 
     820         0.82    767.10929     986.9823    30837.557 
     830         0.83    747.12781     986.9823    31421.651 
     840         0.84    728.02404     986.9823    32164.106 
     850         0.85    721.39825     986.9823    32668.323 
     860         0.86    715.76534     986.9823    33036.852 
     870         0.87    704.75076     986.9823    33453.141 
     880         0.88    693.62886     986.9823    33733.151 
     890         0.89    689.20589     986.9823    33792.727 
     900          0.9    692.35131     986.9823    33564.989 
     910         0.91      696.816     986.9823    33108.284 
     920         0.92    704.01004     986.9823    32297.665 
     930         0.93    722.87331     986.9823    31072.855 
     940         0.94    747.02132     986.9823    29695.296 
     950         0.95    760.40247     986.9823    28611.351 
     960         0.96    754.47959     986.9823    28132.718 
     970         0.97    727.56266     986.9823    28327.127 
     980         0.98    688.13125     986.9823    28989.077 
     990         0.99    650.19661     986.9823    29651.756 
    1000            1    620.78328     986.9823    29926.826 
Loop time of 18.3985 on 1 procs for 900 steps with 64 atoms

Performance: 4.226 ns/day, 5.679 hours/ns, 48.917 timesteps/s
100.0% CPU use with 1 MPI tasks x no OpenMP threads

MPI task timing breakdown:
Section |  min time  |  avg time  |  max time  |%varavg| %total
---------------------------------------------------------------
Pair    | 18.39      | 18.39      | 18.39      |   0.0 | 99.95
Neigh   | 0.0032369  | 0.0032369  | 0.0032369  |   0.0 |  0.02
Comm    | 0.0030449  | 0.0030449  | 0.0030449  |   0.0 |  0.02
Output  | 0.00040965 | 0.00040965 | 0.00040965 |   0.0 |  0.00
Modify  | 0.0015763  | 0.0015763  | 0.0015763  |   0.0 |  0.01
Other   |            | 0.000674   |            |       |  0.00

Nlocal:        64.0000 ave          64 max          64 min
Histogram: 1 0 0 0 0 0 0 0 0 0
Nghost:        886.000 ave         886 max         886 min
Histogram: 1 0 0 0 0 0 0 0 0 0
Neighs:         0.00000 ave           0 max           0 min
Histogram: 1 0 0 0 0 0 0 0 0 0
FullNghs:      5926.00 ave        5926 max        5926 min
Histogram: 1 0 0 0 0 0 0 0 0 0

Total # of neighbors = 5926
Ave neighs/atom = 92.593750
Neighbor list builds = 16
Dangerous builds = 0
Setting up Verlet run ...
  Unit style    : metal
  Current step  : 1000
  Time step     : 0.001
Per MPI rank memory allocation (min/avg/max) = 3.089 | 3.089 | 3.089 Mbytes
Step Time Temp Volume Press 
    1000            1    620.78328     986.9823    29926.826 
    1100          1.1    587.57058     986.9823    23406.911 
    1200          1.2    629.97899     986.9823    23446.075 
    1300          1.3    634.35317     986.9823    26076.029 
    1400          1.4    678.11407     986.9823    26795.298 
    1500          1.5    628.43903     986.9823    29677.708 
    1600          1.6    706.08069     986.9823     33525.27 
    1700          1.7    751.16643     986.9823    31156.591 
    1800          1.8    775.34559     986.9823    27222.607 
    1900          1.9    695.75925     986.9823    27191.259 
    2000            2    722.16635     986.9823    27570.949 
    2100          2.1    691.44892     986.9823    31975.781 
    2200          2.2    839.69566     986.9823    34064.107 
    2300          2.3    768.53197     986.9823    32372.897 
    2400          2.4    694.95878     986.9823    29904.048 
    2500          2.5    663.68409     986.9823    30269.372 
    2600          2.6    717.66082     986.9823    27424.242 
    2700          2.7    597.85824     986.9823    24268.692 
    2800          2.8    570.46214     986.9823    24353.082 
    2900          2.9    582.70611     986.9823    29022.543 
    3000            3    615.77524     986.9823    30405.581 
    3100          3.1    702.71432     986.9823     31627.21 
    3200          3.2    818.13676     986.9823    31608.404 
    3300          3.3    667.60763     986.9823    32241.518 
    3400          3.4    653.48025     986.9823    25954.996 
    3500          3.5    641.89088     986.9823    28507.683 
    3600          3.6     707.2623     986.9823    29681.151 
    3700          3.7     790.5453     986.9823    28545.147 
    3800          3.8    733.53669     986.9823    32738.866 
    3900          3.9    939.58198     986.9823    28865.546 
    4000            4    660.43141     986.9823    34855.668 
    4100          4.1    641.42188     986.9823    27955.768 
    4200          4.2    661.19742     986.9823     28275.41 
    4300          4.3    816.83229     986.9823    23188.505 
    4400          4.4    631.38938     986.9823    29850.417 
    4500          4.5    808.59816     986.9823     29747.49 
    4600          4.6    805.32214     986.9823    34643.484 
    4700          4.7    754.84222     986.9823    31477.428 
    4800          4.8    635.04679     986.9823     29144.52 
    4900          4.9    620.17503     986.9823    30764.013 
    5000            5     649.2458     986.9823    30757.823 
    5100          5.1     741.8891     986.9823    28298.073 
    5200          5.2     662.5708     986.9823    30915.231 
    5300          5.3    622.25181     986.9823    30194.991 
    5400          5.4     637.4232     986.9823     30950.28 
    5500          5.5    772.16682     986.9823    26585.797 
    5600          5.6     658.0689     986.9823    28940.704 
    5700          5.7    767.67012     986.9823     25481.81 
    5800          5.8    695.06868     986.9823    29639.184 
    5900          5.9     677.5779     986.9823    31727.848 
    6000            6    633.37182     986.9823    30071.055 
    6100          6.1     645.6802     986.9823    25895.247 
    6200          6.2    690.84898     986.9823    24081.678 
    6300          6.3    685.10244     986.9823    32556.803 
    6400          6.4    682.55775     986.9823    34903.725 
    6500          6.5    626.42079     986.9823    30962.544 
    6600          6.6    581.15766     986.9823    27222.965 
    6700          6.7     647.1425     986.9823    26172.661 
    6800          6.8    734.03775     986.9823    28118.499 
    6900          6.9    677.53267     986.9823    34119.393 
    7000            7     938.8972     986.9823    34265.418 
    7100          7.1    725.72751     986.9823     42389.62 
    7200          7.2    819.84297     986.9823    31876.554 
    7300          7.3    651.86845     986.9823    32234.648 
    7400          7.4    736.42242     986.9823    26481.155 
    7500          7.5    645.42854     986.9823    25766.165 
    7600          7.6    748.19033     986.9823    20633.306 
    7700          7.7    605.76427     986.9823    28147.228 
    7800          7.8    677.24014     986.9823    27696.194 
    7900          7.9     745.1398     986.9823     27136.69 
    8000            8    689.06319     986.9823     29766.48 
    8100          8.1    797.40468     986.9823    31427.436 
    8200          8.2    831.71093     986.9823    35447.077 
    8300          8.3    693.26283     986.9823    32422.943 
    8400          8.4    684.67805     986.9823     27788.08 
    8500          8.5    742.92708     986.9823    23953.023 
    8600          8.6    548.07302     986.9823    29100.528 
    8700          8.7    661.16292     986.9823    29976.094 
    8800          8.8     799.9253     986.9823    29498.771 
    8900          8.9    693.47737     986.9823    29265.825 
    9000            9    677.18682     986.9823    26138.473 
    9100          9.1    623.31809     986.9823     26351.52 
    9200          9.2    786.49883     986.9823    24711.897 
    9300          9.3    791.58406     986.9823    33335.552 
    9400          9.4    846.34862     986.9823    28901.592 
    9500          9.5    656.29364     986.9823    30142.721 
    9600          9.6    753.07857     986.9823    25912.427 
    9700          9.7    661.41344     986.9823    25353.617 
    9800          9.8    702.63482     986.9823    22592.063 
    9900          9.9    702.22751     986.9823    33685.907 
   10000           10     794.7641     986.9823     33539.39 
Loop time of 193.716 on 1 procs for 9000 steps with 64 atoms

Performance: 4.014 ns/day, 5.979 hours/ns, 46.460 timesteps/s
100.0% CPU use with 1 MPI tasks x no OpenMP threads

MPI task timing breakdown:
Section |  min time  |  avg time  |  max time  |%varavg| %total
---------------------------------------------------------------
Pair    | 193.63     | 193.63     | 193.63     |   0.0 | 99.95
Neigh   | 0.03424    | 0.03424    | 0.03424    |   0.0 |  0.02
Comm    | 0.032634   | 0.032634   | 0.032634   |   0.0 |  0.02
Output  | 0.00059206 | 0.00059206 | 0.00059206 |   0.0 |  0.00
Modify  | 0.015779   | 0.015779   | 0.015779   |   0.0 |  0.01
Other   |            | 0.006924   |            |       |  0.00

Nlocal:        64.0000 ave          64 max          64 min
Histogram: 1 0 0 0 0 0 0 0 0 0
Nghost:        878.000 ave         878 max         878 min
Histogram: 1 0 0 0 0 0 0 0 0 0
Neighs:         0.00000 ave           0 max           0 min
Histogram: 1 0 0 0 0 0 0 0 0 0
FullNghs:      5966.00 ave        5966 max        5966 min
Histogram: 1 0 0 0 0 0 0 0 0 0

Total # of neighbors = 5966
Ave neighs/atom = 93.218750
Neighbor list builds = 161
Dangerous builds = 0
System init for write_data ...
Total wall time: 0:03:34
