LAMMPS data file via write_data, version 29 Sep 2021, timestep = 10000

64 atoms
1 atom types

0 10.560000000000285 xlo xhi
0 9.145228263963919 ylo yhi
0 10.22 zlo zhi
0 0 0 xy xz yz

Masses

1 65.38

Atoms # atomic

1 1 1.3255304840573696 5.335855043066346 3.6594043720983462 0 0 0
2 1 1.2928630193845534 5.355249906561409 8.924982292528913 0 0 0
3 1 0.19785509373463117 7.794488568492518 3.952677554015995 0 0 0
4 1 10.496522230245318 7.482654222197068 8.956581051127895 -1 0 0
5 1 6.326546018151156 0.6986296379964028 3.602223993113054 0 0 0
6 1 6.7274726850498325 0.7287092041790896 8.745854329124219 0 0 0
7 1 5.435891208006898 3.2408987367013364 4.675744937666001 0 0 0
8 1 5.286868135565137 3.300892504561949 8.80844020896715 0 0 0
9 1 1.3626488196429234 0.9058994694524425 3.546997013432721 0 0 0
10 1 1.0677528127607616 0.6486849966196131 9.104571606545306 0 0 0
11 1 0.12047269230389955 3.1335232463258924 4.100333530364725 0 0 0
12 1 10.42257032217605 2.8829959121476976 8.956827791470428 -1 0 0
13 1 3.8861648454437803 1.1127713884600419 3.80433470418392 0 0 0
14 1 3.880410375349962 1.2240696655004375 9.278725864900881 0 0 0
15 1 2.661894048455172 3.310173155397455 3.423360313389359 0 0 0
16 1 2.9242122132383686 3.4939104462706045 8.92472351018606 0 0 0
17 1 6.68576310543517 5.355560451513945 3.9893144587804605 0 0 0
18 1 6.69959122473582 5.473412722590939 8.712078314155937 0 0 0
19 1 5.436191278719682 7.46126394183207 3.4675489720084993 0 0 0
20 1 5.131997924101668 7.892135612148313 8.411907230626666 0 0 0
21 1 9.376884411323058 5.351549179632667 3.422931859522628 0 0 0
22 1 9.311214987349251 5.199172296964876 9.14103291195885 0 0 0
23 1 8.128234105406499 7.705175877384103 4.114864245684008 0 0 0
24 1 8.025475592743025 7.313625057403887 8.810532602163772 0 0 0
25 1 3.9382466631146653 5.675743140993013 4.083254187069557 0 0 0
26 1 4.22297182139514 5.745864327761687 9.17473899792295 0 0 0
27 1 2.7018692238578446 7.757423815929833 3.4818022366935053 0 0 0
28 1 2.3470361996358937 7.690164711149554 9.11032599259117 0 0 0
29 1 9.266883900843256 0.8652713697698783 3.8547159922971126 0 0 0
30 1 9.183473331331227 0.5344860105836343 8.691250106530674 0 0 0
31 1 7.989211672532142 3.1682775512623427 4.42040259536284 0 0 0
32 1 7.672412226179903 3.076670931558582 9.326603931334294 0 0 0
33 1 5.618932434351696 1.4868657468962199 0.8332643820034663 0 0 0
34 1 5.082367205261341 1.31058309827049 6.48634463690731 0 0 0
35 1 4.021228519351156 3.503249882395424 1.2828291623564365 0 0 0
36 1 3.77725500502358 3.5621109833760296 6.584935648102499 0 0 0
37 1 2.6621479628671354 6.234014622954824 1.5441395192099263 0 0 0
38 1 2.7798110602774875 6.082382841290563 6.576484517167116 0 0 0
39 1 1.1181160370021592 8.497960492188614 1.220664724762555 0 0 0
40 1 1.3040856472661702 8.482836737131887 6.3609130131122145 0 0 0
41 1 10.450158132275716 1.52090651919807 1.1696250870608094 -1 0 0
42 1 0.05415837901689692 1.3942957626082446 6.039957375014528 0 0 0
43 1 2.6456645811567183 1.3679424110712106 1.428438584035926 0 0 0
44 1 2.662742144751571 1.3656515695604858 7.1295293686429835 0 0 0
45 1 1.4505813532578302 3.5731278443804606 0.9114494205315982 0 0 0
46 1 1.0977261097513262 3.959783203698791 6.777623645014712 0 0 0
47 1 0.26042677199125974 6.019256309500466 1.206537737610741 0 0 0
48 1 10.438448025061085 6.275850904013226 6.465339220259994 -1 0 0
49 1 9.297465919864635 3.6808814756753234 1.2846502281825638 0 0 0
50 1 9.291267367216559 3.5566164329501913 6.510792784920373 0 0 0
51 1 8.128291942482814 5.917241605697898 1.0881135610289268 0 0 0
52 1 7.890717217592096 6.041419411439855 6.164028599848245 0 0 0
53 1 6.607040895643909 8.216022500636578 1.2711818096004086 0 0 0
54 1 6.2783703643357835 8.245694567554633 5.890094077557846 0 0 0
55 1 9.189026505882081 8.165765191390033 1.4421850572289836 0 0 0
56 1 9.101778154456905 8.384458015107278 6.3298673962113785 0 0 0
57 1 7.854232842248878 1.3921162341467792 1.2469685500974128 0 0 0
58 1 7.757480999309899 1.3023590302320551 6.039930755762582 0 0 0
59 1 6.6286399968862355 3.735985640422057 1.7599732407955035 0 0 0
60 1 6.626883218092716 3.868602613814748 6.902702922722373 0 0 0
61 1 5.406195510346919 5.9881732999608985 1.569469800431919 0 0 0
62 1 5.088044527247461 5.964037434029052 6.345594933920697 0 0 0
63 1 4.199148419760832 8.217010233025642 0.6563227866234634 0 0 0
64 1 3.6184340777087507 8.418898729820944 5.840959745457898 0 0 0

Velocities

1 -5.25950685643327 3.137772310756498 -4.054723922345099
2 -3.774408364106297 0.8738201162774281 -1.0099751535134356
3 0.11075121762877736 0.9233216860518627 -0.6351937620806271
4 1.3851113134429842 -4.401969694179773 0.8904449280784204
5 -0.0012316376267554766 0.13032907171056599 0.2793213701832975
6 -2.4852312153247524 0.1416535558047595 -3.9522799728166698
7 1.0859490791073692 -0.1442109579966175 -1.4565525434816387
8 4.861451482915075 -0.2390496028669987 0.6943240604736775
9 8.162227785932547 -4.274363681754273 -2.606639845117036
10 4.535235131341395 -0.4698886012814092 -4.5754536304994575
11 0.18718968458485927 0.26472079426917977 3.1086344310534484
12 -2.08542320434093 0.8838400066751498 7.670938723177386
13 0.8467493497235127 2.339805025752442 -4.14988803147498
14 -0.4790267421752117 2.2274505173952606 -5.298455918358341
15 0.005005358299440956 -0.31262584721912023 0.3206807572318567
16 -2.6147719662344935 -3.45594692557772 0.047370331315045776
17 1.3858654841017122 -1.3978535292140926 1.1070121694085224
18 1.1600318580077271 0.947572037106051 3.4625332761306358
19 2.526209177963927 1.9134799651930947 -1.9846822796807009
20 -3.436457858762938 5.551679799715024 -0.08623244143510297
21 6.262916730933328 -3.47997288292798 -2.932254483188131
22 -1.4685117212342957 -1.9604853470146426 -2.8933567797131077
23 -1.308921499198859 -2.2648232793451664 1.1132933140513894
24 0.03615469513790771 3.0307361477518464 1.5192313176554806
25 -0.9592369505087904 0.1984385927674368 2.96662114499481
26 -2.769961929976214 2.894970127631512 5.584887692174853
27 -2.091965749294923 -4.546190442498974 10.108368220026975
28 -7.493908204461894 -4.906899808793576 -0.7546881030110772
29 3.5344675105620067 1.506823499462088 -0.7369253209985105
30 -0.6744243980070687 -5.577567017065135 -0.7857311348380159
31 1.7893921247133164 -0.5553401232346146 -4.852312739998109
32 1.636368954268621 3.4474015765211288 2.318289741715379
33 3.339753745980612 -5.766380611287116 -2.0181227364347145
34 -3.275026364105486 2.815113493803155 3.47175379386803
35 3.454755158460819 -0.21615651051918777 -1.0725866027074173
36 -1.8043472969461634 0.2209860461004947 4.7676084582606615
37 -5.72589556445473 3.895527224805758 -4.777454324454069
38 -1.168169630362835 -2.405572042326146 3.7660488759483663
39 -1.417439406223883 -0.05801091347773882 -1.2921187867626018
40 1.2263614891476409 -3.2310135805710516 -0.6119932709695638
41 0.9173281433065342 2.9504189428966527 -3.174384574287658
42 0.7324866301789297 -0.7951587912081041 -0.029420017604043776
43 -1.162856333864063 -3.6565467116240535 -0.8169184894304335
44 5.107840879695682 2.933167292697854 -2.2870735168125162
45 -0.645846028946959 4.1709795778308845 1.0329844800380286
46 4.064842772798862 2.275042204222775 1.0849106881979145
47 3.6991839873641164 -2.3511652926227207 2.2206195482640196
48 -0.23839719280524801 5.452689243488894 -7.496795339805157
49 -4.9071982016782 -2.8805431182377057 -2.3052916126491665
50 -1.716486486082068 -2.47156736752116 -0.41612260185706257
51 0.46352444865013626 -0.7575590963549237 1.05941000857281
52 -1.2486905880958885 -4.963441606106109 -2.7679356301488736
53 -2.8179295394863475 -0.9363089572434932 -4.500395469812986
54 -1.0414063043559587 -0.8831896602581166 6.9932378631532375
55 -1.0113756979024138 6.4224699582806934 3.5262392723290907
56 -1.7156963601092132 2.604131268326258 -2.1712089069965246
57 1.7005896498150517 -0.8251977333289999 1.9532684629502706
58 -5.7670620857052315 3.4834248158431076 4.052283810446347
59 4.53560146928597 -0.39431346807723167 2.125078494045353
60 1.58384601210676 2.547860819941274 8.051900426496221
61 0.7095745328917081 5.038743277520666 0.3835294093680352
62 0.064435899315092 -1.7484843954154579 -5.257136486462419
63 -0.7482954274163283 -0.7992914276235813 3.032804388008106
64 2.2039050485652862 -2.0972799718264286 -4.953325027872258
