ITEM: TIMESTEP
10000
ITEM: NUMBER OF ATOMS
64
ITEM: BOX BOUNDS xy xz yz pp pp pp
0.0000000000000000e+00 1.0560000000000285e+01 0.0000000000000000e+00
0.0000000000000000e+00 9.1452282639639186e+00 0.0000000000000000e+00
0.0000000000000000e+00 1.0220000000000001e+01 0.0000000000000000e+00
ITEM: ATOMS id type x y z
1 1 1.32553 5.33586 3.6594
2 1 1.29286 5.35525 8.92498
3 1 0.197855 7.79449 3.95268
4 1 10.4965 7.48265 8.95658
5 1 6.32655 0.69863 3.60222
6 1 6.72747 0.728709 8.74585
7 1 5.43589 3.2409 4.67574
8 1 5.28687 3.30089 8.80844
9 1 1.36265 0.905899 3.547
10 1 1.06775 0.648685 9.10457
11 1 0.120473 3.13352 4.10033
12 1 10.4226 2.883 8.95683
13 1 3.88616 1.11277 3.80433
14 1 3.88041 1.22407 9.27873
15 1 2.66189 3.31017 3.42336
16 1 2.92421 3.49391 8.92472
17 1 6.68576 5.35556 3.98931
18 1 6.69959 5.47341 8.71208
19 1 5.43619 7.46126 3.46755
20 1 5.132 7.89214 8.41191
21 1 9.37688 5.35155 3.42293
22 1 9.31121 5.19917 9.14103
23 1 8.12823 7.70518 4.11486
24 1 8.02548 7.31363 8.81053
25 1 3.93825 5.67574 4.08325
26 1 4.22297 5.74586 9.17474
27 1 2.70187 7.75742 3.4818
28 1 2.34704 7.69016 9.11033
29 1 9.26688 0.865271 3.85472
30 1 9.18347 0.534486 8.69125
31 1 7.98921 3.16828 4.4204
32 1 7.67241 3.07667 9.3266
33 1 5.61893 1.48687 0.833264
34 1 5.08237 1.31058 6.48634
35 1 4.02123 3.50325 1.28283
36 1 3.77726 3.56211 6.58494
37 1 2.66215 6.23401 1.54414
38 1 2.77981 6.08238 6.57648
39 1 1.11812 8.49796 1.22066
40 1 1.30409 8.48284 6.36091
41 1 10.4502 1.52091 1.16963
42 1 0.0541584 1.3943 6.03996
43 1 2.64566 1.36794 1.42844
44 1 2.66274 1.36565 7.12953
45 1 1.45058 3.57313 0.911449
46 1 1.09773 3.95978 6.77762
47 1 0.260427 6.01926 1.20654
48 1 10.4384 6.27585 6.46534
49 1 9.29747 3.68088 1.28465
50 1 9.29127 3.55662 6.51079
51 1 8.12829 5.91724 1.08811
52 1 7.89072 6.04142 6.16403
53 1 6.60704 8.21602 1.27118
54 1 6.27837 8.24569 5.89009
55 1 9.18903 8.16577 1.44219
56 1 9.10178 8.38446 6.32987
57 1 7.85423 1.39212 1.24697
58 1 7.75748 1.30236 6.03993
59 1 6.62864 3.73599 1.75997
60 1 6.62688 3.8686 6.9027
61 1 5.4062 5.98817 1.56947
62 1 5.08804 5.96404 6.34559
63 1 4.19915 8.21701 0.656323
64 1 3.61843 8.4189 5.84096
