LAMMPS (29 Sep 2021 - Update 1)
Reading data file ...
  triclinic box = (0.0000000 0.0000000 0.0000000) to (10.520000 9.1105872 10.420000) with tilt (0.0000000 0.0000000 0.0000000)
  1 by 1 by 1 MPI processor grid
  reading atoms ...
  64 atoms
  read_data CPU = 0.001 seconds
Neighbor list info ...
  update every 1 steps, delay 0 steps, check yes
  max neighbors/atom: 2000, page size: 100000
  master list distance cutoff = 7
  ghost atom cutoff = 7
  binsize = 3.5, bins = 4 3 3
  1 neighbor lists, perpetual/occasional/extra = 1 0 0
  (1) pair mlip, perpetual
      attributes: full, newton on
      pair build: full/bin/atomonly
      stencil: full/bin/3d
      bin: standard
Setting up Verlet run ...
  Unit style    : metal
  Current step  : 0
  Time step     : 0.001
Per MPI rank memory allocation (min/avg/max) = 3.089 | 3.089 | 3.089 Mbytes
Step Time Temp Volume Press 
       0            0         1380      998.688   -2452.9867 
       1        0.001    1379.0713      998.688    -2421.047 
       2        0.002    1376.2891      998.688   -2325.3349 
       3        0.003    1371.6655      998.688   -2166.1792 
       4        0.004    1365.2199      998.688   -1944.1354 
       5        0.005    1356.9801      998.688   -1663.1962 
       6        0.006    1346.9831      998.688   -1328.2582 
       7        0.007    1335.2741      998.688   -939.85426 
       8        0.008    1321.9047      998.688    -497.3752 
       9        0.009    1306.9336      998.688    -4.777049 
      10         0.01    1290.4263      998.688    534.84806 
Loop time of 0.217257 on 1 procs for 10 steps with 64 atoms

Performance: 3.977 ns/day, 6.035 hours/ns, 46.028 timesteps/s
95.0% CPU use with 1 MPI tasks x no OpenMP threads

MPI task timing breakdown:
Section |  min time  |  avg time  |  max time  |%varavg| %total
---------------------------------------------------------------
Pair    | 0.21715    | 0.21715    | 0.21715    |   0.0 | 99.95
Neigh   | 0          | 0          | 0          |   0.0 |  0.00
Comm    | 3.4375e-05 | 3.4375e-05 | 3.4375e-05 |   0.0 |  0.02
Output  | 3.7685e-05 | 3.7685e-05 | 3.7685e-05 |   0.0 |  0.02
Modify  | 2.5317e-05 | 2.5317e-05 | 2.5317e-05 |   0.0 |  0.01
Other   |            | 1.025e-05  |            |       |  0.00

Nlocal:        64.0000 ave          64 max          64 min
Histogram: 1 0 0 0 0 0 0 0 0 0
Nghost:        886.000 ave         886 max         886 min
Histogram: 1 0 0 0 0 0 0 0 0 0
Neighs:         0.00000 ave           0 max           0 min
Histogram: 1 0 0 0 0 0 0 0 0 0
FullNghs:      6272.00 ave        6272 max        6272 min
Histogram: 1 0 0 0 0 0 0 0 0 0

Total # of neighbors = 6272
Ave neighs/atom = 98.000000
Neighbor list builds = 0
Dangerous builds = 0
Setting up Verlet run ...
  Unit style    : metal
  Current step  : 10
  Time step     : 0.001
Per MPI rank memory allocation (min/avg/max) = 3.089 | 3.089 | 3.089 Mbytes
Step Time Temp Volume Press 
      10         0.01    1290.4263      998.688    534.84806 
      11        0.011     1272.454      998.688     1117.268 
      12        0.012    1253.0937      998.688    1743.2329 
      13        0.013    1232.4298      998.688    2414.3182 
      14        0.014    1210.5539      998.688    3128.9652 
      15        0.015    1187.5629      998.688    3880.2953 
      16        0.016    1163.5581      998.688    4661.9447 
      17        0.017    1138.6461      998.688    5468.8275 
      18        0.018    1112.9397      998.688    6301.8847 
      19        0.019    1086.5567      998.688     7154.947 
      20         0.02    1059.6181      998.688    8021.5595 
      21        0.021    1032.2484      998.688    8898.8825 
      22        0.022    1004.5746      998.688    9780.5573 
      23        0.023    976.72566      998.688    10661.571 
      24        0.024    948.83197      998.688    11544.758 
      25        0.025    921.02511      998.688    12425.931 
      26        0.026    893.43509      998.688    13296.606 
      27        0.027     866.1899      998.688    14157.939 
      28        0.028    839.41503      998.688    15006.857 
      29        0.029    813.23176      998.688    15839.309 
      30         0.03    787.75597      998.688    16652.751 
      31        0.031    763.09712      998.688    17443.737 
      32        0.032    739.35684      998.688    18207.209 
      33        0.033    716.62809      998.688    18940.916 
      34        0.034    694.99469      998.688    19643.827 
      35        0.035    674.53039      998.688     20311.97 
      36        0.036    655.29807      998.688    20943.928 
      37        0.037    637.34955      998.688    21539.394 
      38        0.038    620.72487      998.688    22094.048 
      39        0.039    605.45201      998.688    22608.354 
      40         0.04    591.54719      998.688    23081.478 
      41        0.041    579.01495      998.688    23514.235 
      42        0.042    567.84841      998.688    23906.526 
      43        0.043    558.02944      998.688    24258.779 
      44        0.044    549.52936      998.688    24570.708 
      45        0.045    542.30965      998.688    24842.805 
      46        0.046    536.32292      998.688    25074.696 
      47        0.047    531.51356      998.688     25269.17 
      48        0.048    527.81826      998.688    25427.069 
      49        0.049    525.16746      998.688    25550.995 
      50         0.05    523.48663      998.688    25643.599 
      51        0.051    522.69711      998.688    25706.628 
      52        0.052    522.71717      998.688    25742.221 
      53        0.053    523.46303      998.688    25752.859 
      54        0.054    524.84994      998.688    25740.734 
      55        0.055    526.79291      998.688    25706.783 
      56        0.056    529.20764      998.688    25654.334 
      57        0.057    532.01137      998.688    25585.812 
      58        0.058    535.12363      998.688    25503.598 
      59        0.059    538.46682      998.688    25410.476 
      60         0.06      541.967      998.688     25309.78 
      61        0.061    545.55443      998.688     25204.17 
      62        0.062    549.16375      998.688     25094.97 
      63        0.063    552.73432      998.688    24984.019 
      64        0.064    556.21036      998.688    24873.764 
      65        0.065    559.54102      998.688    24765.171 
      66        0.066    562.68051      998.688    24659.955 
      67        0.067    565.58797      998.688    24558.169 
      68        0.068    568.22734      998.688    24460.669 
      69        0.069    570.56777      998.688    24371.186 
      70         0.07    572.58321      998.688    24289.369 
      71        0.071    574.25212      998.688    24217.074 
      72        0.072    575.55783      998.688    24155.455 
      73        0.073    576.48821      998.688    24104.371 
      74        0.074    577.03511      998.688    24064.525 
      75        0.075    577.19405      998.688    24035.802 
      76        0.076    576.96398      998.688    24018.562 
      77        0.077    576.34693      998.688     24012.03 
      78        0.078    575.34797      998.688    24017.873 
      79        0.079    573.97502      998.688    24035.496 
      80         0.08    572.23856      998.688    24065.531 
      81        0.081    570.15091      998.688    24102.928 
      82        0.082    567.72635      998.688    24151.353 
      83        0.083    564.98157      998.688    24210.736 
      84        0.084    561.93508      998.688    24281.248 
      85        0.085    558.60698      998.688    24362.399 
      86        0.086    555.01863      998.688    24453.455 
      87        0.087    551.19264      998.688    24553.693 
      88        0.088    547.15263      998.688    24662.229 
      89        0.089    542.92317      998.688     24779.27 
      90         0.09    538.52969      998.688    24904.122 
      91        0.091    533.99849      998.688    25035.103 
      92        0.092    529.35707      998.688    25168.608 
      93        0.093     524.6332      998.688    25306.875 
      94        0.094    519.85443      998.688     25449.35 
      95        0.095     515.0486      998.688    25595.447 
      96        0.096    510.24369      998.688    25743.063 
      97        0.097    505.46779      998.688     25891.94 
      98        0.098    500.74909      998.688    26041.247 
      99        0.099    496.11566      998.688    26189.322 
     100          0.1    491.59537      998.688    26332.884 
Loop time of 1.83572 on 1 procs for 90 steps with 64 atoms

Performance: 4.236 ns/day, 5.666 hours/ns, 49.027 timesteps/s
100.0% CPU use with 1 MPI tasks x no OpenMP threads

MPI task timing breakdown:
Section |  min time  |  avg time  |  max time  |%varavg| %total
---------------------------------------------------------------
Pair    | 1.8347     | 1.8347     | 1.8347     |   0.0 | 99.94
Neigh   | 0.00020338 | 0.00020338 | 0.00020338 |   0.0 |  0.01
Comm    | 0.00031696 | 0.00031696 | 0.00031696 |   0.0 |  0.02
Output  | 0.00030815 | 0.00030815 | 0.00030815 |   0.0 |  0.02
Modify  | 0.00015099 | 0.00015099 | 0.00015099 |   0.0 |  0.01
Other   |            | 6.851e-05  |            |       |  0.00

Nlocal:        64.0000 ave          64 max          64 min
Histogram: 1 0 0 0 0 0 0 0 0 0
Nghost:        886.000 ave         886 max         886 min
Histogram: 1 0 0 0 0 0 0 0 0 0
Neighs:         0.00000 ave           0 max           0 min
Histogram: 1 0 0 0 0 0 0 0 0 0
FullNghs:      5886.00 ave        5886 max        5886 min
Histogram: 1 0 0 0 0 0 0 0 0 0

Total # of neighbors = 5886
Ave neighs/atom = 91.968750
Neighbor list builds = 1
Dangerous builds = 0
Setting up Verlet run ...
  Unit style    : metal
  Current step  : 100
  Time step     : 0.001
Per MPI rank memory allocation (min/avg/max) = 3.089 | 3.089 | 3.089 Mbytes
Step Time Temp Volume Press 
     100          0.1    491.59537      998.688    26332.884 
     110         0.11    458.22091      998.688    27465.284 
     120         0.12      458.313      998.688    27677.158 
     130         0.13    490.46156      998.688    26997.291 
     140         0.14    531.55331      998.688    26036.394 
     150         0.15    557.80561      998.688    25527.359 
     160         0.16    564.33003      998.688    25648.657 
     170         0.17    565.11217      998.688    25967.486 
     180         0.18    578.25694      998.688    26000.834 
     190         0.19    609.60362      998.688    25524.658 
     200          0.2    648.19224      998.688    24857.932 
     210         0.21    677.98633      998.688     24422.87 
     220         0.22     691.3703      998.688    24497.797 
     230         0.23    692.63484      998.688    25009.604 
     240         0.24    691.32887      998.688    25625.622 
     250         0.25     694.5448      998.688    25975.737 
     260         0.26    701.87942      998.688    26187.908 
     270         0.27    703.45828      998.688    26609.769 
     280         0.28    692.28102      998.688    27385.923 
     290         0.29    676.15421      998.688    28335.334 
     300          0.3    672.42296      998.688    28913.021 
     310         0.31     692.8105      998.688    28751.846 
     320         0.32    732.32891      998.688    27994.759 
     330         0.33     769.7003      998.688    27285.612 
     340         0.34    779.29339      998.688     27279.31 
     350         0.35    753.63476      998.688    28137.295 
     360         0.36    717.57154      998.688    29119.133 
     370         0.37    706.80375      998.688    29322.796 
     380         0.38    728.37872      998.688    28609.258 
     390         0.39    756.27092      998.688     27705.77 
     400          0.4    761.86266      998.688    27440.304 
     410         0.41    742.94344      998.688    27896.567 
     420         0.42    727.46114      998.688    28184.951 
     430         0.43    740.65751      998.688    27533.586 
     440         0.44     772.5503      998.688    26208.932 
     450         0.45    794.27921      998.688    24965.635 
     460         0.46    791.41076      998.688    24315.104 
     470         0.47    768.44344      998.688    24305.381 
     480         0.48     730.6663      998.688    24770.503 
     490         0.49    681.51752      998.688    25575.352 
     500          0.5    635.58419      998.688    26235.732 
     510         0.51    608.39441      998.688    26414.422 
     520         0.52    597.27717      998.688    26150.007 
     530         0.53    592.71724      998.688    25650.082 
     540         0.54    595.30327      998.688    24970.756 
     550         0.55    610.51159      998.688    24015.462 
     560         0.56    637.39914      998.688    22764.901 
     570         0.57    666.38692      998.688    21533.258 
     580         0.58    683.22739      998.688    20778.489 
     590         0.59    675.22125      998.688    20927.076 
     600          0.6    641.91992      998.688    21904.625 
     610         0.61    604.48507      998.688    23009.861 
     620         0.62    591.27192      998.688    23457.336 
     630         0.63    610.27384      998.688    22990.024 
     640         0.64    646.19134      998.688    22037.675 
     650         0.65    675.63104      998.688     21288.82 
     660         0.66    683.87743      998.688    21171.016 
     670         0.67    674.20941      998.688    21688.521 
     680         0.68    658.55489      998.688     22495.33 
     690         0.69    642.48287      998.688    23403.781 
     700          0.7    627.52194      998.688     24305.53 
     710         0.71    618.93849      998.688    25019.684 
     720         0.72    622.41234      998.688      25338.9 
     730         0.73    639.45733      998.688    25225.681 
     740         0.74    664.28026      998.688    24790.075 
     750         0.75    687.02976      998.688    24318.056 
     760         0.76    704.55732      998.688    23853.998 
     770         0.77    719.36043      998.688    23507.744 
     780         0.78    729.39056      998.688    23393.926 
     790         0.79    731.85971      998.688    23557.406 
     800          0.8    730.09404      998.688    23773.729 
     810         0.81    726.99099      998.688    23936.021 
     820         0.82    719.67922      998.688    24156.082 
     830         0.83    707.17833      998.688    24508.717 
     840         0.84    699.09767      998.688    24619.839 
     850         0.85    708.54912      998.688    24186.237 
     860         0.86    731.45279      998.688    23323.742 
     870         0.87    747.22724      998.688    22589.475 
     880         0.88    740.17269      998.688    22580.487 
     890         0.89    706.84043      998.688    23568.462 
     900          0.9    653.60245      998.688    25288.507 
     910         0.91    600.11969      998.688    27079.234 
     920         0.92    573.07845      998.688    27997.158 
     930         0.93    584.14195      998.688    27724.102 
     940         0.94    618.75788      998.688     26631.61 
     950         0.95    651.89816      998.688    25466.082 
     960         0.96    670.08746      998.688    24730.662 
     970         0.97    678.11291      998.688    24354.949 
     980         0.98    688.92357      998.688    24139.953 
     990         0.99    708.25134      998.688    23930.783 
    1000            1    727.54448      998.688    23899.731 
Loop time of 18.1596 on 1 procs for 900 steps with 64 atoms

Performance: 4.282 ns/day, 5.605 hours/ns, 49.561 timesteps/s
100.0% CPU use with 1 MPI tasks x no OpenMP threads

MPI task timing breakdown:
Section |  min time  |  avg time  |  max time  |%varavg| %total
---------------------------------------------------------------
Pair    | 18.15      | 18.15      | 18.15      |   0.0 | 99.95
Neigh   | 0.0033029  | 0.0033029  | 0.0033029  |   0.0 |  0.02
Comm    | 0.0032105  | 0.0032105  | 0.0032105  |   0.0 |  0.02
Output  | 0.00048017 | 0.00048017 | 0.00048017 |   0.0 |  0.00
Modify  | 0.0017626  | 0.0017626  | 0.0017626  |   0.0 |  0.01
Other   |            | 0.0007227  |            |       |  0.00

Nlocal:        64.0000 ave          64 max          64 min
Histogram: 1 0 0 0 0 0 0 0 0 0
Nghost:        873.000 ave         873 max         873 min
Histogram: 1 0 0 0 0 0 0 0 0 0
Neighs:         0.00000 ave           0 max           0 min
Histogram: 1 0 0 0 0 0 0 0 0 0
FullNghs:      5908.00 ave        5908 max        5908 min
Histogram: 1 0 0 0 0 0 0 0 0 0

Total # of neighbors = 5908
Ave neighs/atom = 92.312500
Neighbor list builds = 16
Dangerous builds = 0
Setting up Verlet run ...
  Unit style    : metal
  Current step  : 1000
  Time step     : 0.001
Per MPI rank memory allocation (min/avg/max) = 3.089 | 3.089 | 3.089 Mbytes
Step Time Temp Volume Press 
    1000            1    727.54448      998.688    23899.731 
    1100          1.1     747.2812      998.688    26583.457 
    1200          1.2     684.0713      998.688    24648.495 
    1300          1.3    566.20301      998.688    20488.553 
    1400          1.4    662.80509      998.688    18590.772 
    1500          1.5    713.88902      998.688    22601.132 
    1600          1.6    722.18178      998.688    23504.287 
    1700          1.7    637.20567      998.688    27469.033 
    1800          1.8    690.72672      998.688    27127.492 
    1900          1.9    826.51166      998.688    25629.109 
    2000            2    762.40786      998.688    28910.545 
    2100          2.1    622.51171      998.688    28563.191 
    2200          2.2    623.13106      998.688     25113.06 
    2300          2.3    697.09803      998.688    21465.009 
    2400          2.4    708.01828      998.688    23015.691 
    2500          2.5    770.04297      998.688     21854.47 
    2600          2.6    658.05164      998.688     26054.42 
    2700          2.7    699.79338      998.688    25922.856 
    2800          2.8    650.57646      998.688    33873.794 
    2900          2.9    853.72082      998.688    29522.506 
    3000            3    691.62658      998.688    26197.258 
    3100          3.1    683.43981      998.688     22766.24 
    3200          3.2    621.27957      998.688    26824.139 
    3300          3.3    824.67065      998.688    22837.181 
    3400          3.4    697.67144      998.688    27116.392 
    3500          3.5    548.59739      998.688    24249.719 
    3600          3.6    611.01162      998.688    21480.254 
    3700          3.7    791.44677      998.688     22485.97 
    3800          3.8    728.19535      998.688      28602.9 
    3900          3.9    683.28055      998.688    27183.669 
    4000            4    685.46034      998.688    26932.648 
    4100          4.1    668.72341      998.688    26938.915 
    4200          4.2    746.41721      998.688    22615.516 
    4300          4.3    599.70598      998.688    19513.586 
    4400          4.4     583.7318      998.688    21683.726 
    4500          4.5    794.27663      998.688    21114.384 
    4600          4.6    717.21904      998.688    23669.058 
    4700          4.7     709.8452      998.688    21748.567 
    4800          4.8    654.18413      998.688    24520.108 
    4900          4.9    776.75737      998.688    27836.538 
    5000            5    710.57637      998.688    27800.429 
    5100          5.1    679.25468      998.688    27261.363 
    5200          5.2    652.54904      998.688    23924.476 
    5300          5.3    605.13427      998.688    19209.431 
    5400          5.4    520.86734      998.688    22656.929 
    5500          5.5     620.7565      998.688    24366.685 
    5600          5.6    646.54752      998.688    26404.927 
    5700          5.7    801.18511      998.688    22434.191 
    5800          5.8    682.42601      998.688    25009.771 
    5900          5.9    570.15054      998.688    22707.725 
    6000            6    612.41188      998.688    20031.924 
    6100          6.1    688.24945      998.688    27572.228 
    6200          6.2    885.45907      998.688    23419.301 
    6300          6.3    643.12374      998.688    27569.897 
    6400          6.4    624.40951      998.688    24907.217 
    6500          6.5    703.02981      998.688    21992.483 
    6600          6.6    735.76452      998.688    23946.692 
    6700          6.7    674.32789      998.688    28735.369 
    6800          6.8    704.79198      998.688    26851.465 
    6900          6.9    734.28263      998.688    25092.284 
    7000            7    644.22066      998.688    24024.046 
    7100          7.1    626.89063      998.688    20068.038 
    7200          7.2    615.23386      998.688    18888.587 
    7300          7.3    764.62858      998.688    22413.667 
    7400          7.4    672.19013      998.688     29469.27 
    7500          7.5    779.66209      998.688    25102.389 
    7600          7.6    649.59269      998.688    27311.184 
    7700          7.7    641.28557      998.688    22927.365 
    7800          7.8    657.95736      998.688    20846.084 
    7900          7.9    693.24358      998.688    27442.788 
    8000            8    808.53504      998.688    30094.837 
    8100          8.1      734.789      998.688    28796.504 
    8200          8.2    747.61582      998.688    22455.661 
    8300          8.3    653.31008      998.688    19975.888 
    8400          8.4      624.741      998.688     20909.93 
    8500          8.5    670.75482      998.688    23483.596 
    8600          8.6    780.73654      998.688    21798.725 
    8700          8.7    686.40062      998.688     24824.14 
    8800          8.8    778.42497      998.688    20940.281 
    8900          8.9    596.77723      998.688    24412.091 
    9000            9    581.80019      998.688    22673.293 
    9100          9.1    629.40757      998.688    24059.546 
    9200          9.2    647.59654      998.688    29636.953 
    9300          9.3    780.16511      998.688    27753.845 
    9400          9.4    698.84322      998.688    26019.435 
    9500          9.5    665.20842      998.688    24257.188 
    9600          9.6    692.45766      998.688    23092.599 
    9700          9.7    553.31561      998.688    28618.806 
    9800          9.8    663.31479      998.688    28327.796 
    9900          9.9    673.45996      998.688    35540.702 
   10000           10    790.87475      998.688    32034.867 
Loop time of 191.398 on 1 procs for 9000 steps with 64 atoms

Performance: 4.063 ns/day, 5.907 hours/ns, 47.022 timesteps/s
100.0% CPU use with 1 MPI tasks x no OpenMP threads

MPI task timing breakdown:
Section |  min time  |  avg time  |  max time  |%varavg| %total
---------------------------------------------------------------
Pair    | 191.31     | 191.31     | 191.31     |   0.0 | 99.95
Neigh   | 0.034478   | 0.034478   | 0.034478   |   0.0 |  0.02
Comm    | 0.03395    | 0.03395    | 0.03395    |   0.0 |  0.02
Output  | 0.00052105 | 0.00052105 | 0.00052105 |   0.0 |  0.00
Modify  | 0.016324   | 0.016324   | 0.016324   |   0.0 |  0.01
Other   |            | 0.007079   |            |       |  0.00

Nlocal:        64.0000 ave          64 max          64 min
Histogram: 1 0 0 0 0 0 0 0 0 0
Nghost:        886.000 ave         886 max         886 min
Histogram: 1 0 0 0 0 0 0 0 0 0
Neighs:         0.00000 ave           0 max           0 min
Histogram: 1 0 0 0 0 0 0 0 0 0
FullNghs:      5926.00 ave        5926 max        5926 min
Histogram: 1 0 0 0 0 0 0 0 0 0

Total # of neighbors = 5926
Ave neighs/atom = 92.593750
Neighbor list builds = 163
Dangerous builds = 0
System init for write_data ...
Total wall time: 0:03:31
