LAMMPS data file via write_data, version 29 Sep 2021, timestep = 10000

64 atoms
1 atom types

0 10.519999999999747 xlo xhi
0 9.110587247812074 ylo yhi
0 10.42 zlo zhi
0 0 0 xy xz yz

Masses

1 65.38

Atoms # atomic

1 1 1.3033034144735598 5.297048381162884 3.6822235550934677 0 0 0
2 1 1.4169859690204032 5.6696732803250836 9.015739521908912 0 0 0
3 1 10.51795102987024 7.443308573550341 3.7937629671289197 -1 0 0
4 1 0.12891905807734316 7.657640479292957 9.018751316848004 0 0 0
5 1 6.874614028482504 0.49949112463710954 3.7436178177969524 0 0 0
6 1 6.321822373458702 0.8337527266878045 9.477380564578564 0 0 0
7 1 5.476070362993262 2.631835343228545 3.9865072239121067 0 0 0
8 1 5.127529209201235 2.9766303905431304 8.598837121404038 0 0 0
9 1 1.4682738688819328 1.12819652414209 4.00201503590216 0 0 0
10 1 1.0944916769186797 1.0761522966370354 8.965640831371916 0 0 0
11 1 0.0346672536936073 2.8885319733938126 3.5385881194031508 0 0 0
12 1 0.05071111120009462 3.287739884356578 8.942968861226362 0 0 0
13 1 3.906398562102044 0.7378511209625133 4.22432414672457 0 0 0
14 1 3.747572366525307 0.6249068288086737 8.905186169710582 0 0 0
15 1 2.8689386530508285 3.1488407316877036 4.027364038709774 0 0 0
16 1 2.556571112398543 3.4265004330609035 8.619214542715554 0 0 0
17 1 6.840193639618487 5.078519634788692 3.910548932948025 0 0 0
18 1 6.48310165603862 5.256806985576808 9.666923278350135 0 0 0
19 1 5.238895737679282 7.624594685982436 3.8007073717455926 0 0 0
20 1 4.965378659354705 7.54131950760152 9.145964889228022 0 0 0
21 1 9.359788994559233 5.068389093238967 3.9271780483636136 0 0 0
22 1 9.037678701552489 5.398481750225165 8.827220615922755 0 0 0
23 1 7.911486071077408 7.4078459535848475 3.3106502669424906 0 0 0
24 1 7.5409550907003275 7.637151064346098 9.23634718111964 0 0 0
25 1 3.8529248368238997 5.354434468891682 4.171035535217058 0 0 0
26 1 4.0274929961811745 5.311339062495685 10.003055726262106 0 0 0
27 1 2.6340444871687954 7.787419557469823 4.056698355256289 0 0 0
28 1 2.571793032545669 7.671230655973557 9.351679132767378 0 0 0
29 1 9.218543925740223 0.6455690260996676 4.426992590185838 0 0 0
30 1 9.130118188764706 0.501155024427636 9.282967395620252 0 0 0
31 1 8.110176667726599 2.910333309592539 4.5757227038493795 0 0 0
32 1 7.732386555406402 3.027555482369803 9.015068279045538 0 0 0
33 1 5.111064474798202 1.2627204235773601 1.7221492954842177 0 0 0
34 1 5.443043317250231 1.594378741635084 6.277322467137149 0 0 0
35 1 3.9796795791777666 3.8693732860242807 1.6159395072802276 0 0 0
36 1 3.8751468220969687 4.037232303119848 6.540841416525216 0 0 0
37 1 2.425109188115288 6.303703227616274 1.814091660743989 0 0 0
38 1 2.621517099562722 6.130165139647384 6.468218782269142 0 0 0
39 1 1.1590310050653696 8.784348352844551 1.9100702656749804 0 0 0
40 1 1.35142380182378 8.30693496573954 6.254483654866579 0 0 0
41 1 0.06585524527317146 1.684097647215044 0.7854999470993712 0 0 0
42 1 10.498743199111122 1.5306624743161952 6.5791740039738364 -1 0 0
43 1 2.7499512207246264 1.64207968000477 0.797183332203035 0 0 0
44 1 2.520616605141293 1.432380020639026 6.699575915432985 0 0 0
45 1 1.7169111380178408 3.946041460677942 0.7107447119007835 0 0 0
46 1 1.1339131098759212 3.5044401386064545 6.126670704164415 0 0 0
47 1 0.09473319556854908 6.127608512560581 0.9623525466648093 0 0 0
48 1 10.465026778785441 6.008621548105642 6.570943621213653 -1 0 0
49 1 9.130372278723204 3.905223279886367 1.5339985154007731 0 0 0
50 1 9.140951704643719 3.6279962152122054 6.733032572295662 0 0 0
51 1 7.959176322075838 6.125864436285425 1.1768643592217074 0 0 0
52 1 7.796017235846582 6.132059893863537 5.945945019494931 0 0 0
53 1 6.832602087120474 8.55632767354789 0.9826290742046916 0 0 0
54 1 6.461539923200815 8.255797830158693 6.721346054018225 0 0 0
55 1 9.310057573281725 8.191908370667923 1.20387654635761 0 0 0
56 1 9.350829993238458 8.252130376566303 6.315262642812268 0 0 0
57 1 8.077834322406943 1.40003516752619 1.3776261733245512 0 0 0
58 1 7.6465842685910035 1.2107059406425733 6.936006376200634 0 0 0
59 1 6.577293877809241 3.4577703040680983 1.4328652125159196 0 0 0
60 1 6.612827666237368 4.031048607348147 6.493765405335359 0 0 0
61 1 5.483216823694635 5.736781493390443 1.780326579848159 0 0 0
62 1 5.24284503258796 6.129481199929334 6.214972994154098 0 0 0
63 1 3.699890890886887 8.474023570767521 1.0057397919773814 0 0 0
64 1 4.03641492797445 8.336604292656048 6.499598712941176 0 0 0

Velocities

1 2.1124901007478774 2.1530383520079406 -0.8274420495705991
2 -0.7282246374856307 -0.7915437241634119 0.7051720531243812
3 6.166117350890672 -4.007974218362815 2.0214058259293455
4 -2.2645743797886495 -1.8890399724130504 -4.5786741294286415
5 2.1543144052833867 -1.165552956730925 -3.5339355137086055
6 2.5478288292036977 1.477531889721968 5.203237446536588
7 -1.4760812747875431 -0.045526563462259334 0.8004939844547451
8 -6.717748714741897 -3.2885721856350485 0.9369078428884253
9 -1.0760759210937927 1.9057104326132728 -3.2265504007729153
10 -3.11317966837487 2.8296377282887235 4.383240261366872
11 -2.952003965484916 2.1028931011956464 0.047450399100147526
12 -2.3469270980954096 -3.3720537281138 2.993476851230246
13 0.7776091732013204 0.5083380921046088 -2.862358401457226
14 5.256305063429477 2.167035260155849 1.026963439733669
15 -5.2995984634958715 -2.1050114309719836 -0.8980696044230787
16 1.719747343370131 2.9840374881763383 -0.3958083779342575
17 -0.8357662749777599 3.547331270156106 2.2281363508104213
18 5.716409717246275 -3.5819985522694626 2.050241286840628
19 4.0807143041341725 4.402228719875318 -1.1400185589928158
20 -4.18777712706475 0.9431991063586252 3.043282063308424
21 0.25600809343577546 -2.190328045472554 2.3746045627141736
22 -1.1879110269657736 1.6054291445802584 5.83640661210205
23 -1.7185141349177602 -4.775317815160098 -6.719890169843613
24 3.677097692125298 5.246491476695457 0.4907573494905669
25 0.85099398031347 1.467944900319981 -1.1038912555717115
26 -0.45941284145488964 -4.9665827873885915 -4.489771656212232
27 3.698245659378811 2.7329895460189353 -1.861168985313901
28 5.606315718910483 -7.11421919079634 2.044420152046722
29 0.7254743735223814 -3.5182535625057207 -5.124603622268309
30 -1.612385247964536 1.1492328757530275 4.020438286875428
31 -4.038726565205272 5.880246247628826 4.252782429270955
32 1.4614893982518158 3.730810058270292 4.332191707581254
33 1.4081735025996458 -5.048299717357433 -3.9750893491849806
34 -2.201498783318167 7.840789078865221 -2.0445572218898023
35 0.6049838513547137 2.0713974083021847 5.699307161753433
36 -3.134671463106103 -1.158893133159659 0.9830359975712457
37 -2.61685098061352 2.522755937800469 2.068909492213683
38 -0.8518812693735867 -0.526394477757598 -1.648835151363509
39 4.4648666434146564 -2.453682709469655 -9.036091548143865
40 -1.8017857540791036 1.5057036793149272 1.8623938364528698
41 -1.824628407333673 -0.8484143858261525 -3.0435079381596104
42 -2.1829873938524016 3.0628713056875356 0.1858547665044615
43 -1.232866245865532 1.1177607648866819 1.9673070388280138
44 -1.7755472603667393 -8.126848585655976 1.6912375393273216
45 1.6503288715832343 -0.0034064263409122678 -1.591924736756401
46 3.7908096842827774 -1.0529855380179658 0.6915417614269807
47 -4.421741025057613 -2.085668573186014 -1.9532130430140515
48 1.009024678747926 3.4731964428128586 -1.9661295141818993
49 -3.5802756483118263 1.5091580640731979 -5.210958549059243
50 4.746402347866164 -1.2827060739882374 4.8839990252168155
51 -1.672798123189671 1.5255300825508322 3.4186050836757067
52 6.155821839229391 0.9218725696144867 0.8790092726136918
53 -0.5840866966311794 -0.8423428022315474 0.3019076892352637
54 -0.1748766426871497 -0.12374069606038886 -1.534723509909531
55 -0.4076549097786878 0.3376345237100867 -0.8973071730747388
56 -1.1467453255870432 -4.535865174997524 -2.790897207564619
57 -2.2931687512321353 -2.3885756913936422 4.93446820004473
58 -0.41597856232088676 -2.311986120285021 -0.40272898561260717
59 -1.3232741466933464 -0.4191232026152828 -1.0097137977500765
60 -6.050443319164282 1.7579066060023083 3.204370529973513
61 -0.25329238516131086 -0.06191219851886668 -0.7596848169320091
62 2.1504522498741254 0.2671475414968219 -1.194055400236879
63 4.691298770867358 -3.5657832095692807 2.43187305781822
64 2.482636792358531 4.900753754838522 -8.173828689729584
