ITEM: TIMESTEP
10000
ITEM: NUMBER OF ATOMS
64
ITEM: BOX BOUNDS xy xz yz pp pp pp
0.0000000000000000e+00 1.0519999999999747e+01 0.0000000000000000e+00
0.0000000000000000e+00 9.1105872478120737e+00 0.0000000000000000e+00
0.0000000000000000e+00 1.0420000000000000e+01 0.0000000000000000e+00
ITEM: ATOMS id type x y z
1 1 1.3033 5.29705 3.68222
2 1 1.41699 5.66967 9.01574
3 1 10.518 7.44331 3.79376
4 1 0.128919 7.65764 9.01875
5 1 6.87461 0.499491 3.74362
6 1 6.32182 0.833753 9.47738
7 1 5.47607 2.63184 3.98651
8 1 5.12753 2.97663 8.59884
9 1 1.46827 1.1282 4.00202
10 1 1.09449 1.07615 8.96564
11 1 0.0346673 2.88853 3.53859
12 1 0.0507111 3.28774 8.94297
13 1 3.9064 0.737851 4.22432
14 1 3.74757 0.624907 8.90519
15 1 2.86894 3.14884 4.02736
16 1 2.55657 3.4265 8.61921
17 1 6.84019 5.07852 3.91055
18 1 6.4831 5.25681 9.66692
19 1 5.2389 7.62459 3.80071
20 1 4.96538 7.54132 9.14596
21 1 9.35979 5.06839 3.92718
22 1 9.03768 5.39848 8.82722
23 1 7.91149 7.40785 3.31065
24 1 7.54096 7.63715 9.23635
25 1 3.85292 5.35443 4.17104
26 1 4.02749 5.31134 10.0031
27 1 2.63404 7.78742 4.0567
28 1 2.57179 7.67123 9.35168
29 1 9.21854 0.645569 4.42699
30 1 9.13012 0.501155 9.28297
31 1 8.11018 2.91033 4.57572
32 1 7.73239 3.02756 9.01507
33 1 5.11106 1.26272 1.72215
34 1 5.44304 1.59438 6.27732
35 1 3.97968 3.86937 1.61594
36 1 3.87515 4.03723 6.54084
37 1 2.42511 6.3037 1.81409
38 1 2.62152 6.13017 6.46822
39 1 1.15903 8.78435 1.91007
40 1 1.35142 8.30693 6.25448
41 1 0.0658552 1.6841 0.7855
42 1 -0.0212568 1.53066 6.57917
43 1 2.74995 1.64208 0.797183
44 1 2.52062 1.43238 6.69958
45 1 1.71691 3.94604 0.710745
46 1 1.13391 3.50444 6.12667
47 1 0.0947332 6.12761 0.962353
48 1 10.465 6.00862 6.57094
49 1 9.13037 3.90522 1.534
50 1 9.14095 3.628 6.73303
51 1 7.95918 6.12586 1.17686
52 1 7.79602 6.13206 5.94595
53 1 6.8326 8.55633 0.982629
54 1 6.46154 8.2558 6.72135
55 1 9.31006 8.19191 1.20388
56 1 9.35083 8.25213 6.31526
57 1 8.07783 1.40004 1.37763
58 1 7.64658 1.21071 6.93601
59 1 6.57729 3.45777 1.43287
60 1 6.61283 4.03105 6.49377
61 1 5.48322 5.73678 1.78033
62 1 5.24285 6.12948 6.21497
63 1 3.69989 8.47402 1.00574
64 1 4.03641 8.3366 6.4996
