LAMMPS data file via write_data, version 29 Sep 2021, timestep = 10000

64 atoms
1 atom types

0 10.560000000000285 xlo xhi
0 9.145228263963919 ylo yhi
0 9.9 zlo zhi
0 0 0 xy xz yz

Masses

1 65.38

Atoms # atomic

1 1 1.0450485317077554 5.1100538035287935 3.5688419396871693 0 0 0
2 1 1.255292245933335 5.354937518071208 8.668760479025437 0 0 0
3 1 10.546749153739892 7.3209371643491625 3.9118425098000245 -1 0 0
4 1 10.40138114380775 7.670163812210794 8.814751248965086 -1 0 0
5 1 6.64449508762474 0.5702186312435201 3.618637752984292 0 0 0
6 1 6.552303032386601 0.8795521117449846 8.761736327007217 0 0 0
7 1 5.403721469107353 2.9038403090757314 3.642971278228286 0 0 0
8 1 5.386725119464015 3.0609705859218663 8.749911822352727 0 0 0
9 1 1.3831586194752543 0.5462408168236385 3.6946047470438304 0 0 0
10 1 1.2478120481305344 0.6917013946843817 8.763500197859655 0 0 0
11 1 0.15443412015518385 2.9492121256160595 3.427779084253196 0 0 0
12 1 10.55047924435656 3.139028924554792 8.96028327180308 -1 0 0
13 1 3.8945662652375326 0.6992012954479789 3.107335730849299 0 0 0
14 1 3.7718805962060937 1.0674914551964434 8.412698522483772 0 0 0
15 1 2.8847770309540044 3.0065972821457043 3.580094051769313 0 0 0
16 1 2.512421067298735 3.1283109077336952 8.59820384280649 0 0 0
17 1 6.516580714675824 5.4929394339956925 3.7786176364948596 0 0 0
18 1 6.578702384009694 5.238641756309685 8.533190749174615 0 0 0
19 1 5.261640092734747 7.608715460038414 3.9003757921294855 0 0 0
20 1 5.021186463828296 7.4434210104601926 8.77760859492873 0 0 0
21 1 9.1372165523697 5.418270968437719 3.7834532220542987 0 0 0
22 1 9.073663636270041 5.435573216701363 8.73249614424335 0 0 0
23 1 7.990511455003364 7.542926137995973 4.138641440460371 0 0 0
24 1 7.708569041432858 7.84908486869431 8.685383287885573 0 0 0
25 1 4.120534878599362 5.129726755068091 3.811565311845706 0 0 0
26 1 4.0929350623331535 5.392631289974287 8.241717836477344 0 0 0
27 1 2.7708980741062774 7.396509142962366 3.7040601387189405 0 0 0
28 1 2.5136886111026215 7.572857960075951 8.706354187325104 0 0 0
29 1 9.239765646096718 0.6905036672453249 3.6673917170620793 0 0 0
30 1 9.179739810082435 0.714301090003027 9.101857548045302 0 0 0
31 1 7.833631377654996 3.0283726966451523 3.109966281511167 0 0 0
32 1 7.951702325606859 3.081033584781418 8.836128892850093 0 0 0
33 1 5.258142460535109 1.5254628194081592 1.0123755054345367 0 0 0
34 1 5.42996175734413 1.6845094767647313 6.123250314467838 0 0 0
35 1 4.074209639306434 4.041944350540576 0.8549302537042961 0 0 0
36 1 3.930600818213463 3.4948099582939243 6.510526728836036 0 0 0
37 1 2.5067346439709537 6.007299464843104 1.3789027627442676 0 0 0
38 1 2.6697832560065358 6.088481314456125 6.468213081311517 0 0 0
39 1 1.20362444559799 8.407108140256112 1.5056108188407704 0 0 0
40 1 1.4333578715791078 8.413969842833241 6.115201303566434 0 0 0
41 1 0.024461391180818828 1.6325859830809037 1.262713758327416 0 0 0
42 1 10.5067744406367 1.6773722849824853 6.129371256263577 -1 0 0
43 1 2.639427139303729 1.8398252510959705 1.065965017276083 0 0 0
44 1 2.6210629197379833 1.4357398807566872 5.9578778845682026 0 0 0
45 1 1.4208181589620388 3.8517348909861946 1.0566322850903802 0 0 0
46 1 1.3833499482124358 3.865359578373149 6.242740700142603 0 0 0
47 1 10.464498280295116 6.2184664025118845 1.166788336306545 -1 0 0
48 1 0.17984899169011034 6.16789572374804 6.422973821072128 0 0 0
49 1 9.12043281269115 3.8800959937037334 1.2694321772114638 0 0 0
50 1 9.509532068056602 3.9588418073223486 6.372374497693056 0 0 0
51 1 7.917139904815028 6.169235877076001 1.3579790792902708 0 0 0
52 1 7.972871656998871 6.114475037520503 6.417871912527728 0 0 0
53 1 6.193387935896735 8.294692656864818 0.8921793024552653 0 0 0
54 1 6.937794224609172 8.544121547537703 6.275634276792238 0 0 0
55 1 9.199449034972016 8.386272664115461 1.6197820194519814 0 0 0
56 1 9.434024995991596 8.410110385956537 6.4858426804460345 0 0 0
57 1 7.720242995660257 1.2180506476536468 1.2932204697942609 0 0 0
58 1 8.030720701342574 1.5509378524330655 5.716242300644639 0 0 0
59 1 6.529885372500244 4.03336832149938 0.9458439320726477 0 0 0
60 1 6.997078387320968 3.7875400554255485 5.943697650939244 0 0 0
61 1 5.150287166076964 6.074684573988574 1.634593298609806 0 0 0
62 1 5.361586196140225 6.081275085753613 6.207805370843111 0 0 0
63 1 3.688486504681934 8.19551373724424 1.021320475756351 0 0 0
64 1 4.34421297818752 8.461555662082988 6.281345139394571 0 0 0

Velocities

1 -2.0852018357043396 0.49809054931916846 -6.963598737931648
2 -3.1930177759306493 1.3587966530454125 2.6648665910101217
3 0.7475435660159141 -2.8073550318046196 1.4434050443819801
4 -8.863590929449913 -0.3197868165171559 -5.9224233353047655
5 -1.7667404847969763 -3.20944280480121 6.139105844773149
6 0.4295993128381242 2.1222851396079854 -1.432499020768148
7 -1.1448846702266469 0.6765069351056537 0.4274921366341224
8 0.1608301589840999 1.396358970580857 5.034346999081189
9 3.1303950107137077 5.905374720251102 -0.45336217659895867
10 -0.023564040748701193 1.3558813086340333 0.2507082914904159
11 -1.1896877322882498 3.691558684663739 -1.1873441990708382
12 -2.1799823178479696 1.8196919245773049 0.7932459429208492
13 -2.5634757837877897 2.1508426816077892 4.210967049618008
14 3.407377963584918 0.4076951361170824 -0.2211167071978342
15 -0.1264776522167534 5.611046965865428 -2.8127886482781967
16 0.4295621096037401 2.5748721282005333 0.2399882648962931
17 -4.321339765504321 -0.6672573927307044 -2.580241384857282
18 -1.2806788740022887 2.505985164342166 2.715595478542638
19 -6.1358189622245565 0.7670625671485238 7.745288968277208
20 5.3511622513651345 4.224517398564817 5.5489220100340075
21 5.075032453114529 -0.17882387073801306 0.08229155912237388
22 3.7647300010346996 -5.7165900296981125 -1.2553938642934215
23 4.227609108574788 -1.4828058038122611 -0.545963802498889
24 -1.5078351134469383 -5.254090142781014 0.523885483001621
25 3.8356616057283754 3.6507446668320864 1.2445967624230159
26 -2.2361066370679326 1.254622026422829 2.0380083203336885
27 -3.286263488044198 -1.4138030962256476 5.135328354636427
28 3.0250729944284274 -1.128650496216359 -2.2261238191502337
29 4.999978344933547 -3.7332294750776787 1.5177644284336365
30 -0.5914154954554225 -0.6968677087849747 -2.3648274676400303
31 -0.37754708931931225 3.9951051262921324 2.6454173867688247
32 2.1583046290408765 2.9742424631159436 4.387516219683627
33 -0.30768996399024656 0.6411799646806063 -2.399833908404815
34 -1.670088010529857 1.1055153579184003 -1.7154206289330436
35 0.192819555977758 -3.7268667753154188 -3.552718209128406
36 5.611744938115692 0.17850231861239887 -3.1512999338504297
37 -4.026488214717757 -2.6556302981824724 -2.532493524578352
38 -3.550316364180247 1.215700415505217 -2.479212478027414
39 1.6852613908913097 0.317979167386962 -1.2877409673362428
40 4.155274833489485 0.29901825659927384 2.0107796399290363
41 0.8664699964101905 1.203744651118615 1.5164610383545025
42 4.244463088440287 2.255748237307477 -3.9031149318961624
43 0.9050701721887345 -3.9100847686261377 3.4416995187571553
44 1.96257277640253 -1.8608258626858174 -3.6068548830139653
45 1.4689160384054967 -4.567604783395365 -5.854503958072894
46 -1.9619434912589597 2.1651628691808154 -1.931044452520314
47 5.177842853376276 -2.094443136066251 -0.9385293661946239
48 -4.807698340866987 -0.4166084193246911 3.731630687116972
49 1.1429372078741407 -1.4083769340845698 4.150334708066476
50 -2.1515408382994803 0.4740380418871874 -0.7821259129155413
51 -0.6779192790601196 1.8312290871724364 -1.289060425794469
52 -3.854301782253214 -1.46642673703729 2.610012642923273
53 3.5792093643943046 3.1215276028497905 -5.399813633222318
54 -2.638073135165083 -2.6239289355609636 -5.175341651408642
55 -1.5503615056387159 -1.4228188177825567 3.5182878419053187
56 -0.08073980090281281 -6.048729220432684 -2.6676976238034733
57 -2.2267132816003334 -4.578237234140388 2.5098956117573934
58 -0.6420932338216779 -0.09947777867961492 1.133071585199713
59 1.8449598975791157 4.215285704007351 -4.471699375455092
60 -5.3958386167990895 -0.1873882078330993 2.9999617832894234
61 -4.718663071149652 -0.36744364169667054 0.9729659559854158
62 11.174893582209988 -3.705295805946218 0.6802902094017977
63 -0.7417326253126051 2.828687868428092 -2.3125011942629605
64 -0.8794650021069752 -3.0457107269709716 -0.6474421363402101
