ITEM: TIMESTEP
10000
ITEM: NUMBER OF ATOMS
64
ITEM: BOX BOUNDS xy xz yz pp pp pp
0.0000000000000000e+00 1.0560000000000285e+01 0.0000000000000000e+00
0.0000000000000000e+00 9.1452282639639186e+00 0.0000000000000000e+00
0.0000000000000000e+00 9.9000000000000004e+00 0.0000000000000000e+00
ITEM: ATOMS id type x y z
1 1 1.04505 5.11005 3.56884
2 1 1.25529 5.35494 8.66876
3 1 10.5467 7.32094 3.91184
4 1 -0.158619 7.67016 8.81475
5 1 6.6445 0.570219 3.61864
6 1 6.5523 0.879552 8.76174
7 1 5.40372 2.90384 3.64297
8 1 5.38673 3.06097 8.74991
9 1 1.38316 0.546241 3.6946
10 1 1.24781 0.691701 8.7635
11 1 0.154434 2.94921 3.42778
12 1 -0.00952076 3.13903 8.96028
13 1 3.89457 0.699201 3.10734
14 1 3.77188 1.06749 8.4127
15 1 2.88478 3.0066 3.58009
16 1 2.51242 3.12831 8.5982
17 1 6.51658 5.49294 3.77862
18 1 6.5787 5.23864 8.53319
19 1 5.26164 7.60872 3.90038
20 1 5.02119 7.44342 8.77761
21 1 9.13722 5.41827 3.78345
22 1 9.07366 5.43557 8.7325
23 1 7.99051 7.54293 4.13864
24 1 7.70857 7.84908 8.68538
25 1 4.12053 5.12973 3.81157
26 1 4.09294 5.39263 8.24172
27 1 2.7709 7.39651 3.70406
28 1 2.51369 7.57286 8.70635
29 1 9.23977 0.690504 3.66739
30 1 9.17974 0.714301 9.10186
31 1 7.83363 3.02837 3.10997
32 1 7.9517 3.08103 8.83613
33 1 5.25814 1.52546 1.01238
34 1 5.42996 1.68451 6.12325
35 1 4.07421 4.04194 0.85493
36 1 3.9306 3.49481 6.51053
37 1 2.50673 6.0073 1.3789
38 1 2.66978 6.08848 6.46821
39 1 1.20362 8.40711 1.50561
40 1 1.43336 8.41397 6.1152
41 1 10.5845 1.63259 1.26271
42 1 10.5068 1.67737 6.12937
43 1 2.63943 1.83983 1.06597
44 1 2.62106 1.43574 5.95788
45 1 1.42082 3.85173 1.05663
46 1 1.38335 3.86536 6.24274
47 1 10.4645 6.21847 1.16679
48 1 0.179849 6.1679 6.42297
49 1 9.12043 3.8801 1.26943
50 1 9.50953 3.95884 6.37237
51 1 7.91714 6.16924 1.35798
52 1 7.97287 6.11448 6.41787
53 1 6.19339 8.29469 0.892179
54 1 6.93779 8.54412 6.27563
55 1 9.19945 8.38627 1.61978
56 1 9.43402 8.41011 6.48584
57 1 7.72024 1.21805 1.29322
58 1 8.03072 1.55094 5.71624
59 1 6.52989 4.03337 0.945844
60 1 6.99708 3.78754 5.9437
61 1 5.15029 6.07468 1.63459
62 1 5.36159 6.08128 6.20781
63 1 3.68849 8.19551 1.02132
64 1 4.34421 8.46156 6.28135
