<?xml version="1.0" encoding="ISO-8859-1"?>
<modeling>
 <generator>
  <i name="program" type="string">vasp </i>
  <i name="version" type="string">6.3.2  </i>
  <i name="subversion" type="string">27Jun22 (build Aug 29 2022 23:59:14) gamma-only                       parallel </i>
  <i name="platform" type="string">LinuxNV </i>
  <i name="date" type="string">2023 06 25 </i>
  <i name="time" type="string">06:20:27 </i>
 </generator>
