LAMMPS (29 Sep 2021 - Update 1)
Reading data file ...
  triclinic box = (0.0000000 0.0000000 0.0000000) to (10.600000 9.1798693 10.500000) with tilt (0.0000000 0.0000000 0.0000000)
  1 by 1 by 1 MPI processor grid
  reading atoms ...
  64 atoms
  read_data CPU = 0.001 seconds
Neighbor list info ...
  update every 1 steps, delay 0 steps, check yes
  max neighbors/atom: 2000, page size: 100000
  master list distance cutoff = 7
  ghost atom cutoff = 7
  binsize = 3.5, bins = 4 3 3
  1 neighbor lists, perpetual/occasional/extra = 1 0 0
  (1) pair mlip, perpetual
      attributes: full, newton on
      pair build: full/bin/atomonly
      stencil: full/bin/3d
      bin: standard
Setting up Verlet run ...
  Unit style    : metal
  Current step  : 0
  Time step     : 0.001
Per MPI rank memory allocation (min/avg/max) = 3.090 | 3.090 | 3.090 Mbytes
Step Time Temp Volume Press 
       0            0         1380    1021.7195   -17539.303 
       1        0.001    1379.1367    1021.7195   -17507.975 
       2        0.002    1376.5474    1021.7195   -17414.024 
       3        0.003    1372.2362    1021.7195   -17257.668 
       4        0.004    1366.2132    1021.7195    -17039.33 
       5        0.005    1358.4949    1021.7195   -16759.644 
       6        0.006    1349.1041    1021.7195   -16419.457 
       7        0.007    1338.0697    1021.7195   -16019.835 
       8        0.008    1325.4273    1021.7195   -15562.068 
       9        0.009    1311.2187    1021.7195    -15050.77 
      10         0.01    1295.4907    1021.7195   -14501.107 
Loop time of 0.230317 on 1 procs for 10 steps with 64 atoms

Performance: 3.751 ns/day, 6.398 hours/ns, 43.418 timesteps/s
82.6% CPU use with 1 MPI tasks x no OpenMP threads

MPI task timing breakdown:
Section |  min time  |  avg time  |  max time  |%varavg| %total
---------------------------------------------------------------
Pair    | 0.23016    | 0.23016    | 0.23016    |   0.0 | 99.93
Neigh   | 0          | 0          | 0          |   0.0 |  0.00
Comm    | 3.3667e-05 | 3.3667e-05 | 3.3667e-05 |   0.0 |  0.01
Output  | 7.1388e-05 | 7.1388e-05 | 7.1388e-05 |   0.0 |  0.03
Modify  | 3.609e-05  | 3.609e-05  | 3.609e-05  |   0.0 |  0.02
Other   |            | 1.133e-05  |            |       |  0.00

Nlocal:        64.0000 ave          64 max          64 min
Histogram: 1 0 0 0 0 0 0 0 0 0
Nghost:        886.000 ave         886 max         886 min
Histogram: 1 0 0 0 0 0 0 0 0 0
Neighs:         0.00000 ave           0 max           0 min
Histogram: 1 0 0 0 0 0 0 0 0 0
FullNghs:      5504.00 ave        5504 max        5504 min
Histogram: 1 0 0 0 0 0 0 0 0 0

Total # of neighbors = 5504
Ave neighs/atom = 86.000000
Neighbor list builds = 0
Dangerous builds = 0
Setting up Verlet run ...
  Unit style    : metal
  Current step  : 10
  Time step     : 0.001
Per MPI rank memory allocation (min/avg/max) = 3.090 | 3.090 | 3.090 Mbytes
Step Time Temp Volume Press 
      10         0.01    1295.4907    1021.7195   -14501.107 
      11        0.011    1278.2977    1021.7195   -13917.433 
      12        0.012    1259.7025    1021.7195   -13298.343 
      13        0.013    1239.7737    1021.7195   -12643.446 
      14        0.014    1218.5862    1021.7195   -11957.007 
      15        0.015    1196.2206    1021.7195   -11244.074 
      16        0.016    1172.7643    1021.7195   -10498.868 
      17        0.017     1148.312    1021.7195    -9726.408 
      18        0.018    1122.9641    1021.7195   -8930.4201 
      19        0.019    1096.8277    1021.7195   -8109.4872 
      20         0.02    1070.0153    1021.7195   -7271.5621 
      21        0.021    1042.6439    1021.7195   -6420.2531 
      22        0.022    1014.8342    1021.7195   -5558.0373 
      23        0.023    986.71169    1021.7195   -4686.3332 
      24        0.024    958.40409    1021.7195   -3809.6734 
      25        0.025    930.04116    1021.7195   -2928.0111 
      26        0.026    901.75379    1021.7195   -2046.1742 
      27        0.027    873.67271    1021.7195   -1169.1207 
      28        0.028    845.92727    1021.7195   -302.26338 
      29        0.029     818.6445    1021.7195    553.10412 
      30         0.03    791.94813    1021.7195     1393.938 
      31        0.031    765.95713    1021.7195    2216.8818 
      32        0.032    740.78457    1021.7195     3017.933 
      33        0.033    716.53638    1021.7195    3793.0224 
      34        0.034    693.31031    1021.7195      4540.42 
      35        0.035    671.19501    1021.7195    5257.8301 
      36        0.036    650.26916    1021.7195    5943.7098 
      37        0.037    630.60074    1021.7195    6595.9182 
      38        0.038    612.24624    1021.7195    7212.7649 
      39        0.039    595.25004    1021.7195    7791.8909 
      40         0.04     579.6441    1021.7195    8331.5991 
      41        0.041    565.44805    1021.7195    8831.9975 
      42        0.042    552.66919    1021.7195    9292.2722 
      43        0.043    541.30276    1021.7195    9712.0091 
      44        0.044    531.33236    1021.7195    10092.326 
      45        0.045    522.73044    1021.7195    10433.574 
      46        0.046    515.45911    1021.7195    10736.456 
      47        0.047    509.47091    1021.7195    11002.005 
      48        0.048    504.70982    1021.7195    11231.521 
      49        0.049    501.11232    1021.7195    11426.573 
      50         0.05    498.60852    1021.7195    11588.149 
      51        0.051    497.12317    1021.7195    11718.728 
      52        0.052    496.57681    1021.7195    11821.399 
      53        0.053    496.88709    1021.7195    11896.026 
      54        0.054    497.97017    1021.7195    11945.015 
      55        0.055    499.74176    1021.7195    11970.359 
      56        0.056      502.118    1021.7195    11974.958 
      57        0.057    505.01645    1021.7195    11960.772 
      58        0.058    508.35681    1021.7195    11929.659 
      59        0.059    512.06141    1021.7195    11883.602 
      60         0.06     516.0558    1021.7195    11823.517 
      61        0.061    520.26965    1021.7195     11752.25 
      62        0.062    524.63726    1021.7195    11670.146 
      63        0.063      529.098    1021.7195    11580.525 
      64        0.064     533.5963    1021.7195    11484.662 
      65        0.065    538.08174    1021.7195    11386.006 
      66        0.066    542.50931    1021.7195    11285.769 
      67        0.067    546.83912    1021.7195     11186.17 
      68        0.068    551.03635    1021.7195    11089.088 
      69        0.069    555.07104    1021.7195    10995.622 
      70         0.07    558.91773    1021.7195    10906.669 
      71        0.071    562.55521    1021.7195    10823.446 
      72        0.072     565.9662    1021.7195    10746.896 
      73        0.073    569.13684    1021.7195    10676.693 
      74        0.074    572.05644    1021.7195    10613.843 
      75        0.075    574.71737    1021.7195    10559.206 
      76        0.076     577.1147    1021.7195    10512.229 
      77        0.077    579.24556    1021.7195    10472.223 
      78        0.078    581.10887    1021.7195    10441.366 
      79        0.079      582.705    1021.7195    10418.651 
      80         0.08    584.03561    1021.7195    10404.932 
      81        0.081    585.10375    1021.7195    10400.743 
      82        0.082    585.91345    1021.7195    10405.525 
      83        0.083    586.46948    1021.7195    10419.497 
      84        0.084    586.77713    1021.7195    10442.122 
      85        0.085    586.84203    1021.7195     10473.37 
      86        0.086    586.67021    1021.7195    10513.386 
      87        0.087    586.26825    1021.7195    10561.729 
      88        0.088    585.64291    1021.7195    10618.386 
      89        0.089     584.8008    1021.7195    10684.315 
      90         0.09    583.74891    1021.7195    10758.942 
      91        0.091    582.49458    1021.7195    10841.609 
      92        0.092    581.04536    1021.7195    10931.737 
      93        0.093    579.40912    1021.7195    11027.924 
      94        0.094    577.59424    1021.7195     11131.06 
      95        0.095     575.6098    1021.7195    11239.847 
      96        0.096    573.46546    1021.7195    11354.163 
      97        0.097    571.17137    1021.7195    11472.254 
      98        0.098    568.73835    1021.7195    11592.546 
      99        0.099     566.1782    1021.7195    11716.547 
     100          0.1    563.50372    1021.7195    11842.645 
Loop time of 1.79509 on 1 procs for 90 steps with 64 atoms

Performance: 4.332 ns/day, 5.540 hours/ns, 50.137 timesteps/s
100.0% CPU use with 1 MPI tasks x no OpenMP threads

MPI task timing breakdown:
Section |  min time  |  avg time  |  max time  |%varavg| %total
---------------------------------------------------------------
Pair    | 1.7941     | 1.7941     | 1.7941     |   0.0 | 99.94
Neigh   | 0.0001835  | 0.0001835  | 0.0001835  |   0.0 |  0.01
Comm    | 0.0002896  | 0.0002896  | 0.0002896  |   0.0 |  0.02
Output  | 0.00032629 | 0.00032629 | 0.00032629 |   0.0 |  0.02
Modify  | 0.00016246 | 0.00016246 | 0.00016246 |   0.0 |  0.01
Other   |            | 7.293e-05  |            |       |  0.00

Nlocal:        64.0000 ave          64 max          64 min
Histogram: 1 0 0 0 0 0 0 0 0 0
Nghost:        880.000 ave         880 max         880 min
Histogram: 1 0 0 0 0 0 0 0 0 0
Neighs:         0.00000 ave           0 max           0 min
Histogram: 1 0 0 0 0 0 0 0 0 0
FullNghs:      5706.00 ave        5706 max        5706 min
Histogram: 1 0 0 0 0 0 0 0 0 0

Total # of neighbors = 5706
Ave neighs/atom = 89.156250
Neighbor list builds = 1
Dangerous builds = 0
Setting up Verlet run ...
  Unit style    : metal
  Current step  : 100
  Time step     : 0.001
Per MPI rank memory allocation (min/avg/max) = 3.090 | 3.090 | 3.090 Mbytes
Step Time Temp Volume Press 
     100          0.1    563.50372    1021.7195    11842.645 
     110         0.11    533.87672    1021.7195    13202.489 
     120         0.12    512.30499    1021.7195    14338.741 
     130         0.13    514.99901    1021.7195    14784.633 
     140         0.14    540.44197    1021.7195    14552.001 
     150         0.15    568.74502    1021.7195    14159.093 
     160         0.16    582.76264    1021.7195    14137.789 
     170         0.17    584.41205    1021.7195    14428.693 
     180         0.18    589.37714    1021.7195    14558.502 
     190         0.19    610.66031    1021.7195    14147.786 
     200          0.2    647.95214    1021.7195    13236.346 
     210         0.21    689.94848    1021.7195    12230.822 
     220         0.22    720.40731    1021.7195    11643.247 
     230         0.23    725.06972    1021.7195    11976.697 
     240         0.24    701.24364    1021.7195    13189.507 
     250         0.25    661.84354    1021.7195     14899.07 
     260         0.26    627.06541    1021.7195    16442.074 
     270         0.27    613.54689    1021.7195    17248.121 
     280         0.28    629.38249    1021.7195    17011.718 
     290         0.29    672.39181    1021.7195    15792.215 
     300          0.3    728.65756    1021.7195     14177.54 
     310         0.31    775.22707    1021.7195    12879.644 
     320         0.32    792.52233    1021.7195    12447.119 
     330         0.33    778.45779    1021.7195    12873.821 
     340         0.34    748.48004    1021.7195    13762.507 
     350         0.35    723.19125    1021.7195    14540.183 
     360         0.36    715.49228    1021.7195    14784.964 
     370         0.37    722.99651    1021.7195    14501.312 
     380         0.38    731.27154    1021.7195    14105.201 
     390         0.39    728.50721    1021.7195    13989.808 
     400          0.4    714.66716    1021.7195    14187.332 
     410         0.41    696.57588    1021.7195    14591.802 
     420         0.42    680.91263    1021.7195     14966.05 
     430         0.43      671.902    1021.7195    15126.794 
     440         0.44    670.68848    1021.7195    15020.443 
     450         0.45    675.76198    1021.7195    14616.839 
     460         0.46    683.21189    1021.7195    14033.147 
     470         0.47    691.52023    1021.7195     13272.15 
     480         0.48    702.33117    1021.7195    12479.586 
     490         0.49    709.31246    1021.7195    11906.934 
     500          0.5    702.31042    1021.7195    11820.717 
     510         0.51    685.54103    1021.7195     12086.22 
     520         0.52    670.92662    1021.7195    12384.527 
     530         0.53    659.72124    1021.7195    12559.454 
     540         0.54    647.71162    1021.7195    12555.884 
     550         0.55    641.88077    1021.7195    12055.719 
     560         0.56    655.63761    1021.7195    10801.252 
     570         0.57    686.21013    1021.7195    8967.8674 
     580         0.58    712.38178    1021.7195    7266.0336 
     590         0.59    712.85102    1021.7195    6451.8771 
     600          0.6    679.41446    1021.7195    6790.1729 
     610         0.61    621.94688    1021.7195    7966.5195 
     620         0.62    571.43599    1021.7195    9063.8509 
     630         0.63    562.72674    1021.7195     9062.678 
     640         0.64     597.7271    1021.7195    7721.8443 
     650         0.65     650.3326    1021.7195    5648.7199 
     660         0.66    698.21724    1021.7195    3608.4963 
     670         0.67    726.28441    1021.7195    2206.9919 
     680         0.68    723.48091    1021.7195    1877.9595 
     690         0.69    691.19941    1021.7195    2564.3603 
     700          0.7     646.6295    1021.7195    3653.2916 
     710         0.71    611.83038    1021.7195    4456.7225 
     720         0.72    598.71102    1021.7195    4574.7859 
     730         0.73    603.34299    1021.7195    4151.9468 
     740         0.74    611.19921    1021.7195     3700.839 
     750         0.75    609.95699    1021.7195    3641.1024 
     760         0.76    599.74879    1021.7195    3927.3655 
     770         0.77     590.4532    1021.7195    4275.4006 
     780         0.78    590.80083    1021.7195    4394.2815 
     790         0.79    600.95359    1021.7195    4272.7978 
     800          0.8    612.61153    1021.7195    4125.6679 
     810         0.81    617.07848    1021.7195     4347.161 
     820         0.82    615.63459    1021.7195    4924.7808 
     830         0.83    616.09392    1021.7195    5629.3995 
     840         0.84    620.32099    1021.7195    6363.2016 
     850         0.85    626.69189    1021.7195    7086.0876 
     860         0.86    642.02092    1021.7195    7521.3092 
     870         0.87    673.62286    1021.7195    7534.8019 
     880         0.88    709.12765    1021.7195    7471.1254 
     890         0.89     722.7549    1021.7195    7966.4605 
     900          0.9    702.81155    1021.7195    9251.8603 
     910         0.91    665.18996    1021.7195    10759.143 
     920         0.92    641.54486    1021.7195    11767.036 
     930         0.93    647.84722    1021.7195    11851.373 
     940         0.94    670.37357    1021.7195    11438.019 
     950         0.95    689.55611    1021.7195    11149.972 
     960         0.96    697.72021    1021.7195    11298.414 
     970         0.97    694.21912    1021.7195    11880.572 
     980         0.98    678.82479    1021.7195    12875.467 
     990         0.99    653.14462    1021.7195    14048.709 
    1000            1     629.0452    1021.7195    15023.155 
Loop time of 17.701 on 1 procs for 900 steps with 64 atoms

Performance: 4.393 ns/day, 5.463 hours/ns, 50.845 timesteps/s
100.0% CPU use with 1 MPI tasks x no OpenMP threads

MPI task timing breakdown:
Section |  min time  |  avg time  |  max time  |%varavg| %total
---------------------------------------------------------------
Pair    | 17.693     | 17.693     | 17.693     |   0.0 | 99.95
Neigh   | 0.0029573  | 0.0029573  | 0.0029573  |   0.0 |  0.02
Comm    | 0.0028728  | 0.0028728  | 0.0028728  |   0.0 |  0.02
Output  | 0.00039122 | 0.00039122 | 0.00039122 |   0.0 |  0.00
Modify  | 0.001526   | 0.001526   | 0.001526   |   0.0 |  0.01
Other   |            | 0.000673   |            |       |  0.00

Nlocal:        64.0000 ave          64 max          64 min
Histogram: 1 0 0 0 0 0 0 0 0 0
Nghost:        870.000 ave         870 max         870 min
Histogram: 1 0 0 0 0 0 0 0 0 0
Neighs:         0.00000 ave           0 max           0 min
Histogram: 1 0 0 0 0 0 0 0 0 0
FullNghs:      5704.00 ave        5704 max        5704 min
Histogram: 1 0 0 0 0 0 0 0 0 0

Total # of neighbors = 5704
Ave neighs/atom = 89.125000
Neighbor list builds = 16
Dangerous builds = 0
Setting up Verlet run ...
  Unit style    : metal
  Current step  : 1000
  Time step     : 0.001
Per MPI rank memory allocation (min/avg/max) = 3.090 | 3.090 | 3.090 Mbytes
Step Time Temp Volume Press 
    1000            1     629.0452    1021.7195    15023.155 
    1100          1.1    630.31176    1021.7195    16793.843 
    1200          1.2    716.70749    1021.7195    18366.374 
    1300          1.3    768.12136    1021.7195    15115.658 
    1400          1.4    686.81832    1021.7195    7897.0449 
    1500          1.5    631.17347    1021.7195     6239.135 
    1600          1.6    526.81862    1021.7195    12172.389 
    1700          1.7    770.23561    1021.7195    10029.552 
    1800          1.8    648.63459    1021.7195    12527.913 
    1900          1.9    641.82978    1021.7195    14401.418 
    2000            2    744.15126    1021.7195     15007.27 
    2100          2.1    838.62126    1021.7195    12174.123 
    2200          2.2    697.94116    1021.7195    9619.2645 
    2300          2.3    576.92805    1021.7195    10650.126 
    2400          2.4    773.69611    1021.7195    6072.6615 
    2500          2.5    748.73501    1021.7195    11036.537 
    2600          2.6    639.48966    1021.7195    17071.468 
    2700          2.7    720.74261    1021.7195    14196.897 
    2800          2.8    680.97912    1021.7195    14132.213 
    2900          2.9    578.38761    1021.7195     14510.26 
    3000            3    692.84947    1021.7195    7906.0019 
    3100          3.1    641.33897    1021.7195    8759.7857 
    3200          3.2    642.63961    1021.7195    7385.2763 
    3300          3.3    674.10259    1021.7195     8865.782 
    3400          3.4    734.56574    1021.7195    14229.522 
    3500          3.5    844.33822    1021.7195    14588.925 
    3600          3.6    737.68939    1021.7195    10954.152 
    3700          3.7    627.11339    1021.7195    12273.277 
    3800          3.8    684.27225    1021.7195    10958.034 
    3900          3.9     756.5307    1021.7195    10035.614 
    4000            4    639.97235    1021.7195    10870.242 
    4100          4.1    639.83247    1021.7195    7499.2567 
    4200          4.2     746.7762    1021.7195    1704.7544 
    4300          4.3    674.05156    1021.7195    10446.678 
    4400          4.4    808.23604    1021.7195    13140.941 
    4500          4.5    635.88921    1021.7195    19524.779 
    4600          4.6    881.99075    1021.7195    7980.1476 
    4700          4.7    676.32521    1021.7195    9039.6012 
    4800          4.8    570.75849    1021.7195    11300.817 
    4900          4.9    706.26763    1021.7195    7403.5507 
    5000            5    701.96123    1021.7195    9647.7778 
    5100          5.1    707.33573    1021.7195    7489.4664 
    5200          5.2    713.31618    1021.7195     10097.49 
    5300          5.3    733.74837    1021.7195    18778.621 
    5400          5.4    711.65003    1021.7195    17602.024 
    5500          5.5    712.23936    1021.7195    10432.453 
    5600          5.6    657.82621    1021.7195    7510.5166 
    5700          5.7    652.55374    1021.7195    10932.289 
    5800          5.8    741.95271    1021.7195    13842.997 
    5900          5.9    646.35587    1021.7195    17116.019 
    6000            6    741.08605    1021.7195    11010.556 
    6100          6.1    698.25934    1021.7195    7389.4591 
    6200          6.2    594.86994    1021.7195     8484.789 
    6300          6.3    691.10227    1021.7195      8420.24 
    6400          6.4    632.91175    1021.7195    13566.267 
    6500          6.5    768.11533    1021.7195    11994.639 
    6600          6.6    681.45685    1021.7195    12991.369 
    6700          6.7    578.92897    1021.7195    8911.5128 
    6800          6.8    574.19155    1021.7195    5331.9915 
    6900          6.9    640.57309    1021.7195    7491.5269 
    7000            7    635.45956    1021.7195    12831.221 
    7100          7.1    734.45964    1021.7195    11855.248 
    7200          7.2    652.54493    1021.7195    15401.147 
    7300          7.3    744.51447    1021.7195    11422.204 
    7400          7.4     817.1939    1021.7195    12771.266 
    7500          7.5    657.33535    1021.7195    17526.791 
    7600          7.6    639.88745    1021.7195    11089.827 
    7700          7.7    587.10778    1021.7195    10780.401 
    7800          7.8    625.28452    1021.7195    9065.4123 
    7900          7.9    717.22536    1021.7195    14485.413 
    8000            8    758.50445    1021.7195    17080.986 
    8100          8.1      650.593    1021.7195    15895.753 
    8200          8.2     681.7534    1021.7195    11997.042 
    8300          8.3    679.29362    1021.7195    8877.5873 
    8400          8.4    700.66592    1021.7195    5382.9923 
    8500          8.5    584.12386    1021.7195    7170.1148 
    8600          8.6    643.20954    1021.7195    7705.1587 
    8700          8.7    779.86955    1021.7195    8794.7341 
    8800          8.8    724.54003    1021.7195     12437.03 
    8900          8.9    718.04822    1021.7195    16158.201 
    9000            9    788.41313    1021.7195     18040.46 
    9100          9.1    786.00844    1021.7195    18471.673 
    9200          9.2    669.43379    1021.7195    13907.422 
    9300          9.3    661.37662    1021.7195    12211.945 
    9400          9.4    670.59911    1021.7195    9280.9019 
    9500          9.5    625.90494    1021.7195    6276.1203 
    9600          9.6    569.73076    1021.7195     5243.918 
    9700          9.7    637.20769    1021.7195     10273.14 
    9800          9.8    668.99531    1021.7195    14095.104 
    9900          9.9    749.31878    1021.7195    8839.1503 
   10000           10     581.8246    1021.7195    12654.541 
Loop time of 176.273 on 1 procs for 9000 steps with 64 atoms

Performance: 4.411 ns/day, 5.441 hours/ns, 51.057 timesteps/s
100.0% CPU use with 1 MPI tasks x no OpenMP threads

MPI task timing breakdown:
Section |  min time  |  avg time  |  max time  |%varavg| %total
---------------------------------------------------------------
Pair    | 176.19     | 176.19     | 176.19     |   0.0 | 99.95
Neigh   | 0.029802   | 0.029802   | 0.029802   |   0.0 |  0.02
Comm    | 0.028707   | 0.028707   | 0.028707   |   0.0 |  0.02
Output  | 0.00054942 | 0.00054942 | 0.00054942 |   0.0 |  0.00
Modify  | 0.015015   | 0.015015   | 0.015015   |   0.0 |  0.01
Other   |            | 0.006543   |            |       |  0.00

Nlocal:        64.0000 ave          64 max          64 min
Histogram: 1 0 0 0 0 0 0 0 0 0
Nghost:        880.000 ave         880 max         880 min
Histogram: 1 0 0 0 0 0 0 0 0 0
Neighs:         0.00000 ave           0 max           0 min
Histogram: 1 0 0 0 0 0 0 0 0 0
FullNghs:      5704.00 ave        5704 max        5704 min
Histogram: 1 0 0 0 0 0 0 0 0 0

Total # of neighbors = 5704
Ave neighs/atom = 89.125000
Neighbor list builds = 163
Dangerous builds = 0
System init for write_data ...
Total wall time: 0:03:16
