LAMMPS data file via write_data, version 29 Sep 2021, timestep = 10000

64 atoms
1 atom types

0 10.600000000000822 xlo xhi
0 9.179869280115762 ylo yhi
0 10.5 zlo zhi
0 0 0 xy xz yz

Masses

1 65.38

Atoms # atomic

1 1 1.4303326181696256 5.616520887532585 3.7863597797232065 0 0 0
2 1 1.472772585635459 5.6461164736328815 9.126804059367164 0 0 0
3 1 10.479726732663364 7.6688065410037565 4.025916494118438 -1 0 0
4 1 0.1564374503783091 7.97397820783989 9.20495020177419 0 0 0
5 1 6.663520077423115 0.6142183230903288 3.789531199030486 0 0 0
6 1 6.903569719385239 0.7452144744306043 8.351608200901381 0 0 0
7 1 5.223271722371041 2.9253774563549264 4.1065319047868245 0 0 0
8 1 5.403726632028039 3.05303506237047 8.927823373839981 0 0 0
9 1 1.071339292905905 0.6137599808890888 4.197741644823603 0 0 0
10 1 1.6074343236691426 1.0158943289362807 9.43930537168378 0 0 0
11 1 10.498301935452563 3.1661424955744466 4.204549462145292 -1 0 0
12 1 0.21681998632766797 3.2355319956311477 9.28311799633951 0 0 0
13 1 3.3912058690244615 0.9074401438901375 4.666530279240584 0 0 0
14 1 4.233095299953185 0.8893737567774245 9.123851452086072 0 0 0
15 1 2.477971657826106 3.082900455671052 3.6485892862965503 0 0 0
16 1 2.7874629905536685 3.3267686708461426 9.408452601300594 0 0 0
17 1 6.588264999129658 5.14299061672251 3.8491223174446896 0 0 0
18 1 6.872691816297957 5.240729499879126 8.785204145743684 0 0 0
19 1 5.2087615165140715 7.504227144081611 3.9309754501990986 0 0 0
20 1 5.9113067672191635 7.991578962060963 9.823355193673612 0 0 0
21 1 9.339989577771878 5.331972922258862 4.227684223395554 0 0 0
22 1 9.357076039125703 5.580625616384727 9.076055747138984 0 0 0
23 1 7.803913323987174 7.548138002425454 4.284627211214108 0 0 0
24 1 8.000727633598844 7.6937065959727 8.61049574554293 0 0 0
25 1 3.915347693827574 5.346146612872416 4.19487133212441 0 0 0
26 1 4.272617345806876 5.575785850321778 9.15024704148383 0 0 0
27 1 2.7121964027243752 7.742579623148563 3.7409495165587883 0 0 0
28 1 2.935812323160208 7.71680583742358 9.05720235849777 0 0 0
29 1 9.091277041373964 0.5413102696167011 3.780924602704113 0 0 0
30 1 9.649294454986574 0.9155507741928841 9.238818080621845 0 0 0
31 1 8.146241710239748 2.9317370940295873 3.985835332828363 0 0 0
32 1 8.339501010563882 3.109156493391907 9.505587180916272 0 0 0
33 1 5.346599674872685 1.0744377943461554 1.3110789102016875 0 0 0
34 1 5.030582056913888 1.3778368703538681 6.422796882324376 0 0 0
35 1 4.073821230732304 3.32214703027799 1.8001302760243014 0 0 0
36 1 3.6656477102595577 3.5356722195821284 6.472706213803242 0 0 0
37 1 2.603250770717251 6.236717688066958 1.1737824515836324 0 0 0
38 1 2.5953817496635403 6.151546972896383 6.740690754645475 0 0 0
39 1 1.204042684490658 8.55444503169224 1.0677722073509968 0 0 0
40 1 1.2047713305202505 8.420860137071744 6.4185006377459795 0 0 0
41 1 10.482596723925592 1.6515427199349475 1.896371489238586 -1 0 0
42 1 10.17962161502728 1.6656354477838247 6.496607963050704 -1 0 0
43 1 2.723450585493993 1.4885782264161758 1.465959565014371 0 0 0
44 1 2.5094646410772494 1.457154345076558 6.80177154709826 0 0 0
45 1 1.1205939638834992 4.037987381559544 1.2402349639968007 0 0 0
46 1 1.1562912000732934 3.6492328187773637 6.961274171985072 0 0 0
47 1 0.013977811155732716 6.284640085136594 1.5935927408920072 0 0 0
48 1 10.551237879906825 5.924178844996047 6.825511164235368 -1 0 0
49 1 9.224723190494286 4.199238259904258 1.4201868274608904 0 0 0
50 1 9.104409430306932 3.9544883509065527 6.678477617186733 0 0 0
51 1 7.746515099341626 6.1792659267683385 0.5444812474721825 0 0 0
52 1 7.818290675043828 6.023965902931693 6.234899284811328 0 0 0
53 1 6.826909566672968 8.22944530759817 1.8172756928276734 0 0 0
54 1 6.494411423488769 8.394753844305745 6.474404722103432 0 0 0
55 1 9.26056007703491 8.407079510995139 0.6639829297027608 0 0 0
56 1 9.306299288707283 8.487147367111072 6.40389884138133 0 0 0
57 1 7.818292554472358 1.3222178173261787 0.542656843711626 0 0 0
58 1 7.862598168246919 1.6130722662742218 5.980110735521304 0 0 0
59 1 7.0045821528763055 3.5097551859490648 1.7633608087713801 0 0 0
60 1 6.579207009827876 3.6318234290742923 6.819026674511432 0 0 0
61 1 5.290447096751105 5.863752996845906 1.362607190338602 0 0 0
62 1 5.1549017311552765 5.990506823290055 6.415208709378705 0 0 0
63 1 3.774219992963078 8.514011168515394 1.0339744023197361 0 0 0
64 1 3.9102923638365654 8.208558022682167 6.623046745761621 0 0 0

Velocities

1 -0.3893569311092265 -1.782143287489471 -4.771954804792575
2 0.2863197534838673 -0.9118259650327407 1.2925132978151126
3 4.939131654032165 1.9595263474233027 2.458168916095631
4 -0.5006086556767378 -1.3143483940459628 2.247306984151534
5 -4.923869601410895 -2.630440490886749 0.2961975181960856
6 -4.061423113514853 -1.1816963846050919 -2.7240314298904114
7 -5.140459321406493 -1.2733610262424953 1.5025482170140634
8 -1.9772928656177322 -1.4552719647134242 -3.657724584593189
9 9.227581943741352 -1.779841178178528 -0.5789523317179179
10 0.738093927918208 -1.511206351699978 2.2784433347687676
11 2.720820388221578 4.707947669620871 3.053136781354099
12 -0.633357232985138 3.265481290173718 -0.788617824701215
13 -0.330290830407255 -3.7203537931714106 3.6153229428679086
14 -3.1933898826477605 -2.626178269343546 6.80042319351062
15 -1.3344843802037736 -2.8900705577375456 0.3010265358315306
16 -1.6240364156031417 0.42646493815551373 -0.6581283169466926
17 -1.2047265303418477 3.8985960827636674 -1.0428357787707105
18 -0.07640603018074867 -5.07225794661174 0.43429649495312816
19 -0.761807201520618 1.2107586022194883 -0.3635560032831828
20 -0.4701760583952894 -0.7821482333094044 0.11162216532511152
21 -1.8227082713015261 -1.250596606362402 -1.4275741961346784
22 -0.08690690633575228 5.01691920510833 3.398989882840053
23 -4.438419405865111 5.188042026890221 2.32675695449032
24 2.2925184091851576 -1.782435959826283 -5.7841310795464445
25 -3.06847816050559 3.526664824370498 -0.2112807344424461
26 2.1674212637393495 0.21214354650651723 -2.884238719595005
27 3.930611540462497 -3.6471716224334787 4.524712124113328
28 -2.011823437358996 0.8887055334161178 1.3274132064174202
29 -1.5741874690798638 0.21614634204703845 3.889572390907526
30 1.1772950703184193 -1.9894339609095675 1.001422611707464
31 2.322348889219597 0.026067384412815173 -0.27791651113358584
32 0.7678885983163525 -0.36345429675376806 -0.991746352605162
33 -0.23423611272195508 -0.755262467032089 -3.0036965336236134
34 0.04589916195569336 4.103402003774094 -3.539712904257967
35 -0.013644915804701072 0.43703766219293877 -1.6722739262552488
36 2.0903934970505236 -0.812777748106237 -0.887789560587941
37 0.5486520724666039 -2.3892310460956607 5.764138680039163
38 -0.7567640386607621 -2.7463071438082753 2.848420563456478
39 0.5074861881619442 -1.470644736692043 1.6385682970500557
40 2.513633878891829 -0.0170451281921859 -1.7170426378531642
41 -3.160466385692879 -0.7426595691620277 -0.5149749781712091
42 -0.6899452793501174 7.154204819402127 -2.793831326197678
43 0.8533176932672857 -0.8294187473260632 -0.9020047115431692
44 3.128025377097727 3.352937580921738 0.011613036845611126
45 2.498656091962288 6.419172248890022 3.2960960911240544
46 1.1337031280177645 0.29212353202516556 4.298341880327194
47 -0.5245940136581793 1.560202485522383 -0.046142892939498
48 1.06368025770464 1.1643768088558044 -5.3116114369382235
49 0.12597344578894537 1.3741932174083988 -6.686105656991741
50 7.234048593246573 0.18197526614369705 2.30887673484972
51 4.764838756164352 -1.3143453207193259 3.931607241952584
52 0.9157099778485506 -1.158454387245921 -1.0433116358431538
53 2.0138186638788405 -1.1745550597322627 0.1423148993917408
54 -5.93544377551356 -1.9828902182754007 0.5131543784022637
55 -0.6321604333239002 -2.3229766388911885 0.09379096209566459
56 -1.8780249233012134 -0.7195035273233056 0.6388260120810302
57 -3.8912708623907637 -1.5249486277884006 -1.6570671273498967
58 -0.7341733152619727 2.9191449950426613 -2.5162467250505856
59 0.6365331624389156 0.9036554923080715 -5.851454993689271
60 -3.234072248333092 -2.1401014247337087 0.43133706192644783
61 -1.758539419541484 -2.374215207363375 -2.4801702596777075
62 0.8107435542375265 3.261632907189261 1.262802397107341
63 2.42046681258437 -1.9552973892425711 2.000857187163809
64 -0.8080673263796473 0.7273478642989911 -3.254493001049498
