LAMMPS (29 Sep 2021 - Update 1)
Reading data file ...
  triclinic box = (0.0000000 0.0000000 0.0000000) to (10.560000 9.1452283 9.9400000) with tilt (0.0000000 0.0000000 0.0000000)
  1 by 1 by 1 MPI processor grid
  reading atoms ...
  64 atoms
  read_data CPU = 0.001 seconds
Neighbor list info ...
  update every 1 steps, delay 0 steps, check yes
  max neighbors/atom: 2000, page size: 100000
  master list distance cutoff = 7
  ghost atom cutoff = 7
  binsize = 3.5, bins = 4 3 3
  1 neighbor lists, perpetual/occasional/extra = 1 0 0
  (1) pair mlip, perpetual
      attributes: full, newton on
      pair build: full/bin/atomonly
      stencil: full/bin/3d
      bin: standard
Setting up Verlet run ...
  Unit style    : metal
  Current step  : 0
  Time step     : 0.001
Per MPI rank memory allocation (min/avg/max) = 3.089 | 3.089 | 3.089 Mbytes
Step Time Temp Volume Press 
       0            0         1380    959.94169    15653.474 
       1        0.001    1378.9664    959.94169    15688.656 
       2        0.002    1375.8684    959.94169    15794.087 
       3        0.003    1370.7164    959.94169    15966.178 
       4        0.004    1363.5313    959.94169    16198.068 
       5        0.005    1354.3429    959.94169    16488.822 
       6        0.006    1343.1884    959.94169    16839.204 
       7        0.007    1330.1129    959.94169    17249.242 
       8        0.008    1315.1689    959.94169     17719.22 
       9        0.009    1298.4171    959.94169    18248.832 
      10         0.01    1279.9261    959.94169    18836.344 
Loop time of 0.214457 on 1 procs for 10 steps with 64 atoms

Performance: 4.029 ns/day, 5.957 hours/ns, 46.629 timesteps/s
96.1% CPU use with 1 MPI tasks x no OpenMP threads

MPI task timing breakdown:
Section |  min time  |  avg time  |  max time  |%varavg| %total
---------------------------------------------------------------
Pair    | 0.21433    | 0.21433    | 0.21433    |   0.0 | 99.94
Neigh   | 0          | 0          | 0          |   0.0 |  0.00
Comm    | 3.4327e-05 | 3.4327e-05 | 3.4327e-05 |   0.0 |  0.02
Output  | 4.4956e-05 | 4.4956e-05 | 4.4956e-05 |   0.0 |  0.02
Modify  | 3.2222e-05 | 3.2222e-05 | 3.2222e-05 |   0.0 |  0.02
Other   |            | 1.27e-05   |            |       |  0.01

Nlocal:        64.0000 ave          64 max          64 min
Histogram: 1 0 0 0 0 0 0 0 0 0
Nghost:        886.000 ave         886 max         886 min
Histogram: 1 0 0 0 0 0 0 0 0 0
Neighs:         0.00000 ave           0 max           0 min
Histogram: 1 0 0 0 0 0 0 0 0 0
FullNghs:      6272.00 ave        6272 max        6272 min
Histogram: 1 0 0 0 0 0 0 0 0 0

Total # of neighbors = 6272
Ave neighs/atom = 98.000000
Neighbor list builds = 0
Dangerous builds = 0
Setting up Verlet run ...
  Unit style    : metal
  Current step  : 10
  Time step     : 0.001
Per MPI rank memory allocation (min/avg/max) = 3.089 | 3.089 | 3.089 Mbytes
Step Time Temp Volume Press 
      10         0.01    1279.9261    959.94169    18836.344 
      11        0.011     1259.773    959.94169    19479.779 
      12        0.012     1238.043    959.94169     20176.88 
      13        0.013    1214.8297    959.94169    20924.247 
      14        0.014     1190.235    959.94169     21718.19 
      15        0.015    1164.3688    959.94169    22555.787 
      16        0.016    1137.3488    959.94169    23433.603 
      17        0.017    1109.3002    959.94169    24347.802 
      18        0.018    1080.3552    959.94169    25294.175 
      19        0.019    1050.6526    959.94169    26268.426 
      20         0.02    1020.3368    959.94169    27265.926 
      21        0.021    989.55762    959.94169    28281.981 
      22        0.022    958.46876    959.94169    29311.777 
      23        0.023    927.22707    959.94169    30350.428 
      24        0.024    895.99108    959.94169    31391.946 
      25        0.025    864.91974    959.94169     32431.19 
      26        0.026    834.17153    959.94169    33463.897 
      27        0.027     803.9029    959.94169    34484.717 
      28        0.028    774.26667    959.94169    35489.082 
      29        0.029    745.41056    959.94169    36472.524 
      30         0.03    717.47562    959.94169    37430.592 
      31        0.031    690.59447    959.94169    38358.496 
      32        0.032     664.8899    959.94169     39252.12 
      33        0.033    640.47379    959.94169    40108.355 
      34        0.034    617.44574    959.94169    40923.402 
      35        0.035    595.89176    959.94169    41693.341 
      36        0.036     575.8837    959.94169    42416.561 
      37        0.037    557.47843    959.94169     43091.17 
      38        0.038    540.71725    959.94169    43715.216 
      39        0.039    525.62586    959.94169    44287.824 
      40         0.04    512.21423    959.94169     44808.12 
      41        0.041    500.47675    959.94169    45275.775 
      42        0.042    490.39285    959.94169     45691.87 
      43        0.043    481.92765    959.94169    46056.427 
      44        0.044    475.03265    959.94169    46370.368 
      45        0.045    469.64687    959.94169    46634.623 
      46        0.046    465.69805    959.94169    46849.473 
      47        0.047    463.10403    959.94169    47018.407 
      48        0.048    461.77389    959.94169    47140.895 
      49        0.049    461.60985    959.94169    47221.736 
      50         0.05    462.50932    959.94169    47264.239 
      51        0.051    464.36605    959.94169    47271.134 
      52        0.052    467.07154    959.94169    47245.372 
      53        0.053    470.51635    959.94169    47190.327 
      54        0.054    474.59164    959.94169    47108.397 
      55        0.055    479.19027    959.94169    47000.192 
      56        0.056    484.20793    959.94169    46871.919 
      57        0.057    489.54469    959.94169    46726.858 
      58        0.058    495.10562    959.94169    46568.015 
      59        0.059    500.80146    959.94169    46397.757 
      60         0.06    506.54904    959.94169    46220.147 
      61        0.061    512.27173    959.94169    46037.109 
      62        0.062    517.89976    959.94169      45851.4 
      63        0.063    523.37057    959.94169     45667.02 
      64        0.064    528.62886    959.94169    45484.718 
      65        0.065    533.62658    959.94169    45306.106 
      66        0.066    538.32272    959.94169    45132.062 
      67        0.067    542.68285    959.94169    44962.411 
      68        0.068    546.67944    959.94169    44801.955 
      69        0.069     550.2918    959.94169    44650.195 
      70         0.07    553.50511    959.94169    44509.574 
      71        0.071    556.31037    959.94169    44378.468 
      72        0.072    558.70382    959.94169    44257.918 
      73        0.073    560.68665    959.94169    44148.447 
      74        0.074    562.26462    959.94169     44049.67 
      75        0.075    563.44746    959.94169    43963.755 
      76        0.076    564.24847    959.94169    43890.773 
      77        0.077    564.68399    959.94169    43830.196 
      78        0.078    564.77296    959.94169    43781.016 
      79        0.079    564.53655    959.94169    43743.717 
      80         0.08    563.99782    959.94169    43718.127 
      81        0.081    563.18124    959.94169    43702.858 
      82        0.082    562.11248    959.94169    43698.372 
      83        0.083    560.81813    959.94169    43704.276 
      84        0.084    559.32528    959.94169    43718.585 
      85        0.085     557.6611    959.94169    43742.108 
      86        0.086    555.85267    959.94169    43773.838 
      87        0.087    553.92682    959.94169    43811.265 
      88        0.088     551.9098    959.94169    43854.077 
      89        0.089    549.82726    959.94169    43902.623 
      90         0.09    547.70409    959.94169    43953.712 
      91        0.091    545.56434    959.94169     44007.39 
      92        0.092    543.43103    959.94169    44063.558 
      93        0.093    541.32595    959.94169    44121.202 
      94        0.094    539.26976    959.94169    44179.726 
      95        0.095    537.28174    959.94169     44237.65 
      96        0.096    535.37987    959.94169    44294.563 
      97        0.097    533.58091    959.94169    44349.178 
      98        0.098     531.9003    959.94169    44401.567 
      99        0.099    530.35216    959.94169    44451.636 
     100          0.1    528.94921    959.94169     44499.18 
Loop time of 1.91129 on 1 procs for 90 steps with 64 atoms

Performance: 4.068 ns/day, 5.899 hours/ns, 47.089 timesteps/s
99.9% CPU use with 1 MPI tasks x no OpenMP threads

MPI task timing breakdown:
Section |  min time  |  avg time  |  max time  |%varavg| %total
---------------------------------------------------------------
Pair    | 1.9102     | 1.9102     | 1.9102     |   0.0 | 99.94
Neigh   | 0.00020818 | 0.00020818 | 0.00020818 |   0.0 |  0.01
Comm    | 0.00029884 | 0.00029884 | 0.00029884 |   0.0 |  0.02
Output  | 0.00033303 | 0.00033303 | 0.00033303 |   0.0 |  0.02
Modify  | 0.00017115 | 0.00017115 | 0.00017115 |   0.0 |  0.01
Other   |            | 7.524e-05  |            |       |  0.00

Nlocal:        64.0000 ave          64 max          64 min
Histogram: 1 0 0 0 0 0 0 0 0 0
Nghost:        886.000 ave         886 max         886 min
Histogram: 1 0 0 0 0 0 0 0 0 0
Neighs:         0.00000 ave           0 max           0 min
Histogram: 1 0 0 0 0 0 0 0 0 0
FullNghs:      6102.00 ave        6102 max        6102 min
Histogram: 1 0 0 0 0 0 0 0 0 0

Total # of neighbors = 6102
Ave neighs/atom = 95.343750
Neighbor list builds = 1
Dangerous builds = 0
Setting up Verlet run ...
  Unit style    : metal
  Current step  : 100
  Time step     : 0.001
Per MPI rank memory allocation (min/avg/max) = 3.089 | 3.089 | 3.089 Mbytes
Step Time Temp Volume Press 
     100          0.1    528.94921    959.94169     44499.18 
     110         0.11    524.77065    959.94169    44656.553 
     120         0.12    540.33531    959.94169    44102.283 
     130         0.13    572.22994    959.94169    42989.255 
     140         0.14    613.29461    959.94169    41610.562 
     150         0.15    653.83027    959.94169    40443.555 
     160         0.16    679.34147    959.94169    39915.734 
     170         0.17    677.48095    959.94169     40264.96 
     180         0.18    652.86226    959.94169    41267.909 
     190         0.19    627.95886    959.94169    42358.725 
     200          0.2    621.75234    959.94169    43058.119 
     210         0.21    630.17327    959.94169     43421.49 
     220         0.22    635.84621    959.94169    43786.603 
     230         0.23     630.7694    959.94169    44503.793 
     240         0.24     620.2575    959.94169    45379.815 
     250         0.25    613.09286    959.94169    46172.013 
     260         0.26    618.24962    959.94169    46508.607 
     270         0.27    641.83941    959.94169    46152.328 
     280         0.28    680.53919    959.94169    45194.261 
     290         0.29    722.57865    959.94169    44085.726 
     300          0.3     751.5979    959.94169    43336.984 
     310         0.31     756.7242    959.94169    43299.338 
     320         0.32    744.50059    959.94169    43842.572 
     330         0.33    731.17349    959.94169    44530.191 
     340         0.34    725.07042    959.94169    45116.547 
     350         0.35     723.2484    959.94169    45611.579 
     360         0.36    719.49462    959.94169    46228.011 
     370         0.37    708.88522    959.94169    47012.329 
     380         0.38     690.9275    959.94169    47970.417 
     390         0.39    674.58157    959.94169    48793.358 
     400          0.4    671.60303    959.94169    49182.805 
     410         0.41    683.97407    959.94169    48965.484 
     420         0.42     705.0967    959.94169    48127.888 
     430         0.43    730.49661    959.94169    46826.893 
     440         0.44    762.62594    959.94169    45259.866 
     450         0.45    800.51911    959.94169    43591.867 
     460         0.46    829.23986    959.94169    42209.285 
     470         0.47     834.7398    959.94169    41454.481 
     480         0.48    822.57464    959.94169    41195.709 
     490         0.49    804.41651    959.94169    41104.744 
     500          0.5    778.40719    959.94169    41278.532 
     510         0.51    735.83279    959.94169    41923.996 
     520         0.52    674.77315    959.94169    43273.972 
     530         0.53    603.11043    959.94169    45167.068 
     540         0.54    537.09421    959.94169    46970.701 
     550         0.55    498.68032    959.94169    47873.252 
     560         0.56    507.90833    959.94169    47181.043 
     570         0.57     565.9012    959.94169    44897.658 
     580         0.58    647.06446    959.94169    41843.363 
     590         0.59    718.03818    959.94169    39168.293 
     600          0.6    757.33459    959.94169    37588.921 
     610         0.61    760.57885    959.94169    37300.185 
     620         0.62    740.56478    959.94169    37956.607 
     630         0.63    717.89944    959.94169    38858.368 
     640         0.64    706.27673    959.94169    39458.583 
     650         0.65     705.9106    959.94169    39671.772 
     660         0.66    705.61686    959.94169     39780.86 
     670         0.67    693.73154    959.94169    40115.858 
     680         0.68     670.1479    959.94169    40759.059 
     690         0.69    643.28165    959.94169    41553.507 
     700          0.7    618.87086    959.94169    42380.082 
     710         0.71    596.97814    959.94169    43230.384 
     720         0.72    577.49373    959.94169    44040.405 
     730         0.73    565.45366    959.94169    44614.639 
     740         0.74    569.74215    959.94169     44706.87 
     750         0.75    596.34942    959.94169    44041.436 
     760         0.76    640.99094    959.94169    42840.855 
     770         0.77    687.50814    959.94169    41633.543 
     780         0.78    718.74902    959.94169    40970.457 
     790         0.79     726.1143    959.94169     41203.96 
     800          0.8    709.55707    959.94169    42286.205 
     810         0.81    680.45093    959.94169    43644.558 
     820         0.82    662.10435    959.94169    44510.132 
     830         0.83    673.41872    959.94169    44290.614 
     840         0.84     712.4089    959.94169    43013.103 
     850         0.85    759.16463    959.94169    41356.474 
     860         0.86    790.73418    959.94169    40139.646 
     870         0.87    795.33206    959.94169    39916.332 
     880         0.88    774.41519    959.94169    40646.231 
     890         0.89    735.76806    959.94169    42044.256 
     900          0.9    692.41604    959.94169    43608.223 
     910         0.91    660.98168    959.94169    44766.093 
     920         0.92    649.13476    959.94169    45182.282 
     930         0.93    653.10152    959.94169    44940.585 
     940         0.94    668.07761    959.94169    44264.645 
     950         0.95     688.0746    959.94169    43448.241 
     960         0.96    703.31376    959.94169    42861.256 
     970         0.97    703.69649    959.94169    42809.698 
     980         0.98    684.57132    959.94169    43450.239 
     990         0.99    652.05126    959.94169    44587.931 
    1000            1    620.09808    959.94169    45842.941 
Loop time of 18.9773 on 1 procs for 900 steps with 64 atoms

Performance: 4.098 ns/day, 5.857 hours/ns, 47.425 timesteps/s
100.0% CPU use with 1 MPI tasks x no OpenMP threads

MPI task timing breakdown:
Section |  min time  |  avg time  |  max time  |%varavg| %total
---------------------------------------------------------------
Pair    | 18.969     | 18.969     | 18.969     |   0.0 | 99.95
Neigh   | 0.0032561  | 0.0032561  | 0.0032561  |   0.0 |  0.02
Comm    | 0.0029329  | 0.0029329  | 0.0029329  |   0.0 |  0.02
Output  | 0.00038616 | 0.00038616 | 0.00038616 |   0.0 |  0.00
Modify  | 0.0014886  | 0.0014886  | 0.0014886  |   0.0 |  0.01
Other   |            | 0.0006798  |            |       |  0.00

Nlocal:        64.0000 ave          64 max          64 min
Histogram: 1 0 0 0 0 0 0 0 0 0
Nghost:        886.000 ave         886 max         886 min
Histogram: 1 0 0 0 0 0 0 0 0 0
Neighs:         0.00000 ave           0 max           0 min
Histogram: 1 0 0 0 0 0 0 0 0 0
FullNghs:      6108.00 ave        6108 max        6108 min
Histogram: 1 0 0 0 0 0 0 0 0 0

Total # of neighbors = 6108
Ave neighs/atom = 95.437500
Neighbor list builds = 16
Dangerous builds = 0
Setting up Verlet run ...
  Unit style    : metal
  Current step  : 1000
  Time step     : 0.001
Per MPI rank memory allocation (min/avg/max) = 3.089 | 3.089 | 3.089 Mbytes
Step Time Temp Volume Press 
    1000            1    620.09808    959.94169    45842.941 
    1100          1.1    825.73038    959.94169    45515.354 
    1200          1.2    707.96817    959.94169    51571.656 
    1300          1.3    751.64816    959.94169    46203.815 
    1400          1.4    682.97792    959.94169    41755.108 
    1500          1.5    675.06766    959.94169    40244.963 
    1600          1.6    647.41661    959.94169    41524.932 
    1700          1.7    664.03886    959.94169    43407.072 
    1800          1.8    638.09788    959.94169    52559.358 
    1900          1.9      725.587    959.94169    52264.979 
    2000            2    766.73262    959.94169    49837.057 
    2100          2.1     700.0407    959.94169    47346.372 
    2200          2.2    736.44514    959.94169    40019.132 
    2300          2.3    525.83922    959.94169     45119.99 
    2400          2.4    673.55346    959.94169    42829.429 
    2500          2.5    697.76446    959.94169    46233.263 
    2600          2.6    731.92523    959.94169    48730.479 
    2700          2.7    816.59463    959.94169    48536.811 
    2800          2.8    729.68271    959.94169    46391.165 
    2900          2.9    635.10118    959.94169      44546.2 
    3000            3    663.85154    959.94169    42937.816 
    3100          3.1    737.59632    959.94169     45776.35 
    3200          3.2    723.08167    959.94169    52219.831 
    3300          3.3    754.96404    959.94169    48611.066 
    3400          3.4    609.56196    959.94169    45036.452 
    3500          3.5     640.4864    959.94169    40092.813 
    3600          3.6    646.73644    959.94169    41267.537 
    3700          3.7    740.12183    959.94169    43902.265 
    3800          3.8    674.16161    959.94169    48073.294 
    3900          3.9    697.57863    959.94169    45621.567 
    4000            4    661.86962    959.94169    43862.304 
    4100          4.1    629.87479    959.94169    36430.372 
    4200          4.2    567.76052    959.94169    35123.452 
    4300          4.3    567.41269    959.94169    38919.448 
    4400          4.4    697.69586    959.94169    39399.033 
    4500          4.5     725.6157    959.94169     44832.92 
    4600          4.6     748.6569    959.94169    45999.205 
    4700          4.7    669.88535    959.94169     48638.38 
    4800          4.8    774.72868    959.94169    43771.093 
    4900          4.9    611.59116    959.94169    42469.008 
    5000            5    590.06564    959.94169    42130.007 
    5100          5.1    704.14635    959.94169    42984.889 
    5200          5.2    715.98981    959.94169    45736.466 
    5300          5.3    785.29594    959.94169     42889.85 
    5400          5.4    666.88361    959.94169    37927.036 
    5500          5.5    624.45252    959.94169    37167.234 
    5600          5.6    602.43541    959.94169    43421.598 
    5700          5.7    662.04776    959.94169    46827.157 
    5800          5.8    756.07561    959.94169    45737.587 
    5900          5.9    675.84225    959.94169    47221.641 
    6000            6    635.45856    959.94169    42537.816 
    6100          6.1    579.12761    959.94169    38152.497 
    6200          6.2    634.70898    959.94169    38752.358 
    6300          6.3    639.75702    959.94169    42250.099 
    6400          6.4    668.90118    959.94169    43078.036 
    6500          6.5    694.92054    959.94169    45559.831 
    6600          6.6    778.47323    959.94169    43956.042 
    6700          6.7    648.25679    959.94169     46443.95 
    6800          6.8    664.52869    959.94169    41169.977 
    6900          6.9    698.30106    959.94169    37431.956 
    7000            7     623.1645    959.94169    38881.757 
    7100          7.1    569.81329    959.94169    42999.963 
    7200          7.2    621.75493    959.94169    48449.207 
    7300          7.3    772.80377    959.94169    43543.188 
    7400          7.4    615.80901    959.94169    46781.332 
    7500          7.5    653.71444    959.94169    42048.302 
    7600          7.6    609.82358    959.94169    39522.234 
    7700          7.7    593.65265    959.94169     38292.99 
    7800          7.8    640.09846    959.94169    39589.331 
    7900          7.9    654.29486    959.94169    46511.472 
    8000            8     677.2375    959.94169    49057.668 
    8100          8.1     775.0364    959.94169     47451.97 
    8200          8.2    662.57228    959.94169    43393.291 
    8300          8.3     633.8959    959.94169    39610.269 
    8400          8.4    720.44384    959.94169    40514.571 
    8500          8.5    760.98767    959.94169    44334.845 
    8600          8.6    688.95378    959.94169    47221.758 
    8700          8.7    568.90786    959.94169    45881.664 
    8800          8.8    585.17035    959.94169    36404.875 
    8900          8.9    717.47662    959.94169    33740.573 
    9000            9    637.20971    959.94169    41210.165 
    9100          9.1    632.68646    959.94169    45311.252 
    9200          9.2    637.86498    959.94169    50611.956 
    9300          9.3    669.00389    959.94169    48729.454 
    9400          9.4    696.21362    959.94169    44210.285 
    9500          9.5    668.01476    959.94169    41803.556 
    9600          9.6    576.66592    959.94169    39200.331 
    9700          9.7    565.79874    959.94169    37361.329 
    9800          9.8     648.9912    959.94169    40613.758 
    9900          9.9    657.51256    959.94169    45033.734 
   10000           10    664.71473    959.94169    45877.727 
Loop time of 199.362 on 1 procs for 9000 steps with 64 atoms

Performance: 3.900 ns/day, 6.153 hours/ns, 45.144 timesteps/s
100.0% CPU use with 1 MPI tasks x no OpenMP threads

MPI task timing breakdown:
Section |  min time  |  avg time  |  max time  |%varavg| %total
---------------------------------------------------------------
Pair    | 199.27     | 199.27     | 199.27     |   0.0 | 99.96
Neigh   | 0.033615   | 0.033615   | 0.033615   |   0.0 |  0.02
Comm    | 0.031938   | 0.031938   | 0.031938   |   0.0 |  0.02
Output  | 0.00052097 | 0.00052097 | 0.00052097 |   0.0 |  0.00
Modify  | 0.015648   | 0.015648   | 0.015648   |   0.0 |  0.01
Other   |            | 0.006969   |            |       |  0.00

Nlocal:        64.0000 ave          64 max          64 min
Histogram: 1 0 0 0 0 0 0 0 0 0
Nghost:        886.000 ave         886 max         886 min
Histogram: 1 0 0 0 0 0 0 0 0 0
Neighs:         0.00000 ave           0 max           0 min
Histogram: 1 0 0 0 0 0 0 0 0 0
FullNghs:      6132.00 ave        6132 max        6132 min
Histogram: 1 0 0 0 0 0 0 0 0 0

Total # of neighbors = 6132
Ave neighs/atom = 95.812500
Neighbor list builds = 159
Dangerous builds = 0
System init for write_data ...
Total wall time: 0:03:40
