ITEM: TIMESTEP
10000
ITEM: NUMBER OF ATOMS
64
ITEM: BOX BOUNDS xy xz yz pp pp pp
0.0000000000000000e+00 1.0560000000000285e+01 0.0000000000000000e+00
0.0000000000000000e+00 9.1452282639639186e+00 0.0000000000000000e+00
0.0000000000000000e+00 9.9399999999999995e+00 0.0000000000000000e+00
ITEM: ATOMS id type x y z
1 1 1.36681 5.23919 3.70778
2 1 1.34279 5.40838 8.45242
3 1 10.4442 7.58869 3.80005
4 1 -0.0744537 7.72065 8.72902
5 1 6.56696 0.752725 3.90619
6 1 6.47374 1.09324 9.10729
7 1 4.95404 2.85175 3.85323
8 1 5.06029 3.09861 8.7568
9 1 1.12632 0.633169 4.05585
10 1 1.529 1.02229 8.8327
11 1 10.5557 2.99016 3.47639
12 1 0.143136 3.2096 9.00329
13 1 3.72799 0.697395 3.46859
14 1 4.03317 0.854886 8.31169
15 1 2.42009 2.70676 3.5048
16 1 2.78483 3.15614 7.92947
17 1 6.43848 5.53644 3.88348
18 1 6.60548 5.15203 9.06134
19 1 5.23073 7.71915 3.87164
20 1 5.4712 7.56371 8.82628
21 1 9.23448 5.31632 3.51738
22 1 9.20466 5.37009 8.45935
23 1 7.73257 7.63985 3.7136
24 1 7.69005 7.55361 8.69222
25 1 4.04698 5.21026 3.52015
26 1 3.70781 5.30119 8.69108
27 1 2.62315 7.55464 3.6818
28 1 2.79947 7.72633 8.97754
29 1 9.16474 1.02914 4.11556
30 1 9.25175 0.786983 8.9447
31 1 7.728 3.17925 3.49924
32 1 8.02665 3.11322 8.56833
33 1 5.391 1.47116 1.60785
34 1 5.31164 1.434 6.23611
35 1 3.92174 3.70391 1.03012
36 1 3.98862 4.00455 5.82215
37 1 2.85183 6.10845 0.939397
38 1 2.6802 6.09424 5.99851
39 1 1.47638 8.32677 1.11521
40 1 1.16737 8.38554 6.57081
41 1 -0.0285858 1.28212 1.65409
42 1 0.0914683 1.83392 6.46242
43 1 2.80004 1.49106 1.14438
44 1 2.80686 1.66998 5.86762
45 1 1.40307 3.69814 1.35879
46 1 1.25064 3.8747 5.93815
47 1 10.5611 5.79882 1.00751
48 1 10.4275 5.96162 6.30114
49 1 9.2431 3.46707 1.1202
50 1 9.22208 3.82818 5.762
51 1 7.95839 5.92982 1.09493
52 1 7.83745 6.11923 5.80513
53 1 6.86244 8.22217 1.21484
54 1 6.57691 8.43315 6.57017
55 1 9.58671 8.17171 1.09921
56 1 9.21977 8.568 6.40853
57 1 8.10205 1.45123 1.27818
58 1 7.97132 1.63654 6.64562
59 1 6.62041 3.59329 1.06907
60 1 6.71615 3.93739 6.54975
61 1 5.16785 6.23778 1.28636
62 1 5.42354 6.07072 6.02994
63 1 4.02528 8.53049 1.53671
64 1 3.87492 8.53568 6.63588
