LAMMPS (29 Sep 2021 - Update 1)
Reading data file ...
  triclinic box = (0.0000000 0.0000000 0.0000000) to (10.640000 9.2145103 10.180000) with tilt (0.0000000 0.0000000 0.0000000)
  1 by 1 by 1 MPI processor grid
  reading atoms ...
  64 atoms
  read_data CPU = 0.001 seconds
Neighbor list info ...
  update every 1 steps, delay 0 steps, check yes
  max neighbors/atom: 2000, page size: 100000
  master list distance cutoff = 7
  ghost atom cutoff = 7
  binsize = 3.5, bins = 4 3 3
  1 neighbor lists, perpetual/occasional/extra = 1 0 0
  (1) pair mlip, perpetual
      attributes: full, newton on
      pair build: full/bin/atomonly
      stencil: full/bin/3d
      bin: standard
Setting up Verlet run ...
  Unit style    : metal
  Current step  : 0
  Time step     : 0.001
Per MPI rank memory allocation (min/avg/max) = 3.089 | 3.089 | 3.089 Mbytes
Step Time Temp Volume Press 
       0            0         1380    998.07153   -10052.881 
       1        0.001    1379.0832    998.07153   -10021.058 
       2        0.002    1376.3339    998.07153   -9925.5792 
       3        0.003    1371.7575    998.07153   -9766.5674 
       4        0.004     1365.365    998.07153   -9544.3233 
       5        0.005    1357.1732    998.07153   -9259.3299 
       6        0.006    1347.2049    998.07153   -8912.2569 
       7        0.007    1335.4891    998.07153   -8504.2692 
       8        0.008    1322.0616    998.07153   -8038.7827 
       9        0.009    1306.9652    998.07153    -7517.842 
      10         0.01    1290.2499    998.07153   -6945.3068 
Loop time of 0.221041 on 1 procs for 10 steps with 64 atoms

Performance: 3.909 ns/day, 6.140 hours/ns, 45.240 timesteps/s
91.2% CPU use with 1 MPI tasks x no OpenMP threads

MPI task timing breakdown:
Section |  min time  |  avg time  |  max time  |%varavg| %total
---------------------------------------------------------------
Pair    | 0.22093    | 0.22093    | 0.22093    |   0.0 | 99.95
Neigh   | 0          | 0          | 0          |   0.0 |  0.00
Comm    | 3.1924e-05 | 3.1924e-05 | 3.1924e-05 |   0.0 |  0.01
Output  | 3.9105e-05 | 3.9105e-05 | 3.9105e-05 |   0.0 |  0.02
Modify  | 3.0298e-05 | 3.0298e-05 | 3.0298e-05 |   0.0 |  0.01
Other   |            | 1.092e-05  |            |       |  0.00

Nlocal:        64.0000 ave          64 max          64 min
Histogram: 1 0 0 0 0 0 0 0 0 0
Nghost:        886.000 ave         886 max         886 min
Histogram: 1 0 0 0 0 0 0 0 0 0
Neighs:         0.00000 ave           0 max           0 min
Histogram: 1 0 0 0 0 0 0 0 0 0
FullNghs:      5504.00 ave        5504 max        5504 min
Histogram: 1 0 0 0 0 0 0 0 0 0

Total # of neighbors = 5504
Ave neighs/atom = 86.000000
Neighbor list builds = 0
Dangerous builds = 0
Setting up Verlet run ...
  Unit style    : metal
  Current step  : 10
  Time step     : 0.001
Per MPI rank memory allocation (min/avg/max) = 3.089 | 3.089 | 3.089 Mbytes
Step Time Temp Volume Press 
      10         0.01    1290.2499    998.07153   -6945.3068 
      11        0.011    1271.9719    998.07153   -6321.1504 
      12        0.012    1252.1938    998.07153   -5646.4155 
      13        0.013    1230.9848    998.07153   -4924.6639 
      14        0.014    1208.4206    998.07153   -4156.9191 
      15        0.015    1184.5839    998.07153   -3347.8401 
      16        0.016     1159.564    998.07153   -2497.8614 
      17        0.017    1133.4561    998.07153   -1608.5551 
      18        0.018    1106.3615    998.07153   -683.61421 
      19        0.019    1078.3871    998.07153    273.93722 
      20         0.02    1049.6455    998.07153    1258.6729 
      21        0.021    1020.2546    998.07153    2268.0763 
      22        0.022    990.33796    998.07153    3297.4772 
      23        0.023    960.02316    998.07153    4340.1567 
      24        0.024    929.44153    998.07153    5393.3698 
      25        0.025      898.728    998.07153    6455.5255 
      26        0.026    868.01973    998.07153    7519.9501 
      27        0.027    837.45383    998.07153    8577.4098 
      28        0.028    807.16732    998.07153    9627.8731 
      29        0.029    777.29699    998.07153    10668.763 
      30         0.03    747.97726    998.07153    11695.092 
      31        0.031    719.33854    998.07153    12701.721 
      32        0.032    691.50579    998.07153    13682.392 
      33        0.033    664.59802    998.07153     14637.21 
      34        0.034    638.72727    998.07153    15561.546 
      35        0.035    613.99694    998.07153    16452.105 
      36        0.036    590.50088    998.07153    17306.717 
      37        0.037     568.3222    998.07153    18120.954 
      38        0.038    547.53257    998.07153    18893.501 
      39        0.039    528.19157    998.07153    19620.814 
      40         0.04    510.34614    998.07153    20301.131 
      41        0.041    494.03047    998.07153    20933.092 
      42        0.042    479.26598    998.07153     21517.05 
      43        0.043     466.0614    998.07153    22051.648 
      44        0.044     454.4128    998.07153    22536.749 
      45        0.045    444.30414    998.07153    22972.495 
      46        0.046    435.70769    998.07153    23357.565 
      47        0.047    428.58477    998.07153    23693.683 
      48        0.048     422.8868    998.07153    23981.791 
      49        0.049    418.55622    998.07153    24223.587 
      50         0.05     415.5275    998.07153    24421.541 
      51        0.051    413.72828    998.07153    24577.693 
      52        0.052    413.08033    998.07153    24693.968 
      53        0.053    413.50052    998.07153    24771.277 
      54        0.054    414.90197    998.07153    24812.734 
      55        0.055    417.19532    998.07153    24820.314 
      56        0.056    420.28966    998.07153    24798.199 
      57        0.057    424.09362    998.07153    24749.203 
      58        0.058    428.51618    998.07153    24675.756 
      59        0.059    433.46738    998.07153    24578.666 
      60         0.06    438.85889    998.07153    24459.688 
      61        0.061    444.60501    998.07153     24323.25 
      62        0.062    450.62349    998.07153    24172.429 
      63        0.063      456.836    998.07153    24009.981 
      64        0.064    463.16853    998.07153    23838.281 
      65        0.065    469.55149    998.07153    23658.073 
      66        0.066    475.92038    998.07153    23473.118 
      67        0.067     482.2162    998.07153    23284.413 
      68        0.068    488.38563    998.07153    23095.286 
      69        0.069    494.38129    998.07153    22908.129 
      70         0.07    500.16164    998.07153    22723.225 
      71        0.071    505.69123    998.07153    22541.766 
      72        0.072    510.94083    998.07153    22365.271 
      73        0.073    515.88726    998.07153    22194.964 
      74        0.074    520.51339    998.07153    22030.028 
      75        0.075    524.80811    998.07153    21872.148 
      76        0.076    528.76604    998.07153    21721.032 
      77        0.077    532.38687    998.07153    21575.011 
      78        0.078    535.67566    998.07153    21437.949 
      79        0.079    538.64273    998.07153    21309.296 
      80         0.08    541.30304    998.07153    21188.565 
      81        0.081    543.67563    998.07153    21074.745 
      82        0.082    545.78352    998.07153    20969.007 
      83        0.083    547.65348    998.07153    20870.597 
      84        0.084    549.31532    998.07153    20778.921 
      85        0.085    550.80112    998.07153    20689.798 
      86        0.086    552.14484    998.07153    20605.478 
      87        0.087    553.38198    998.07153    20524.854 
      88        0.088    554.54888    998.07153    20447.383 
      89        0.089    555.68209    998.07153    20371.478 
      90         0.09    556.81794    998.07153    20297.724 
      91        0.091     557.9921    998.07153    20224.156 
      92        0.092    559.23912    998.07153    20151.014 
      93        0.093    560.59227    998.07153    20075.315 
      94        0.094    562.08264    998.07153    19998.172 
      95        0.095    563.73863    998.07153    19918.769 
      96        0.096    565.58527    998.07153    19835.014 
      97        0.097    567.64396    998.07153    19747.179 
      98        0.098    569.93287    998.07153    19656.784 
      99        0.099    572.46684    998.07153    19561.455 
     100          0.1    575.25678    998.07153    19460.324 
Loop time of 1.83769 on 1 procs for 90 steps with 64 atoms

Performance: 4.231 ns/day, 5.672 hours/ns, 48.975 timesteps/s
100.0% CPU use with 1 MPI tasks x no OpenMP threads

MPI task timing breakdown:
Section |  min time  |  avg time  |  max time  |%varavg| %total
---------------------------------------------------------------
Pair    | 1.8366     | 1.8366     | 1.8366     |   0.0 | 99.94
Neigh   | 0.00020302 | 0.00020302 | 0.00020302 |   0.0 |  0.01
Comm    | 0.00028459 | 0.00028459 | 0.00028459 |   0.0 |  0.02
Output  | 0.00031874 | 0.00031874 | 0.00031874 |   0.0 |  0.02
Modify  | 0.00016549 | 0.00016549 | 0.00016549 |   0.0 |  0.01
Other   |            | 7.429e-05  |            |       |  0.00

Nlocal:        64.0000 ave          64 max          64 min
Histogram: 1 0 0 0 0 0 0 0 0 0
Nghost:        886.000 ave         886 max         886 min
Histogram: 1 0 0 0 0 0 0 0 0 0
Neighs:         0.00000 ave           0 max           0 min
Histogram: 1 0 0 0 0 0 0 0 0 0
FullNghs:      5820.00 ave        5820 max        5820 min
Histogram: 1 0 0 0 0 0 0 0 0 0

Total # of neighbors = 5820
Ave neighs/atom = 90.937500
Neighbor list builds = 1
Dangerous builds = 0
Setting up Verlet run ...
  Unit style    : metal
  Current step  : 100
  Time step     : 0.001
Per MPI rank memory allocation (min/avg/max) = 3.089 | 3.089 | 3.089 Mbytes
Step Time Temp Volume Press 
     100          0.1    575.25678    998.07153    19460.324 
     110         0.11    616.65652    998.07153    18122.986 
     120         0.12    667.52738    998.07153    16594.153 
     130         0.13    695.65485    998.07153    15838.849 
     140         0.14    683.11784    998.07153    16396.409 
     150         0.15    643.82732    998.07153    17819.861 
     160         0.16    610.63617    998.07153    19150.697 
     170         0.17    606.46114    998.07153    19702.913 
     180         0.18    630.02903    998.07153    19417.318 
     190         0.19    662.53472    998.07153     18853.15 
     200          0.2    681.95885    998.07153    18719.348 
     210         0.21     675.2896    998.07153    19411.584 
     220         0.22    645.46392    998.07153    20798.952 
     230         0.23    608.39989    998.07153    22336.141 
     240         0.24    581.14276    998.07153    23537.719 
     250         0.25    575.94675    998.07153     24077.07 
     260         0.26    599.45508    998.07153    23707.144 
     270         0.27    640.80251    998.07153    22729.291 
     280         0.28    674.56238    998.07153    21903.039 
     290         0.29    688.89245    998.07153    21670.175 
     300          0.3    693.78638    998.07153    21820.415 
     310         0.31    700.27429    998.07153    22021.808 
     320         0.32    707.36895    998.07153     22202.97 
     330         0.33     713.9707    998.07153    22360.343 
     340         0.34    726.57566    998.07153    22284.964 
     350         0.35    744.22734    998.07153    22043.604 
     360         0.36    750.29577    998.07153    22169.279 
     370         0.37    733.22544    998.07153     22961.47 
     380         0.38    705.89151    998.07153    24082.796 
     390         0.39    688.32518    998.07153    24964.826 
     400          0.4    681.74105    998.07153    25496.022 
     410         0.41     677.4955    998.07153    25826.853 
     420         0.42    673.36427    998.07153     26119.24 
     430         0.43    671.20863    998.07153    26323.315 
     440         0.44     676.3512    998.07153    26152.156 
     450         0.45    691.55741    998.07153    25686.991 
     460         0.46    708.95214    998.07153    25083.482 
     470         0.47    722.56583    998.07153    24500.525 
     480         0.48     733.4949    998.07153    24130.043 
     490         0.49       735.21    998.07153    24211.382 
     500          0.5    714.33643    998.07153    25015.094 
     510         0.51     672.4661    998.07153    26319.283 
     520         0.52    634.87592    998.07153    27213.943 
     530         0.53    632.89057    998.07153    26979.636 
     540         0.54    673.54735    998.07153    25555.007 
     550         0.55    729.68946    998.07153    23727.404 
     560         0.56     762.1395    998.07153    22668.319 
     570         0.57    752.73021    998.07153    22900.048 
     580         0.58    721.64869    998.07153    23783.049 
     590         0.59    705.67382    998.07153    24247.027 
     600          0.6    719.19516    998.07153    23766.955 
     610         0.61    747.52126    998.07153    22604.493 
     620         0.62    769.08434    998.07153    21369.716 
     630         0.63    770.74184    998.07153    20585.714 
     640         0.64    750.82641    998.07153    20365.245 
     650         0.65    718.00553    998.07153    20390.124 
     660         0.66    688.58387    998.07153     20114.92 
     670         0.67     676.8665    998.07153    19215.404 
     680         0.68    682.65291    998.07153    17739.655 
     690         0.69    691.73589    998.07153     16166.01 
     700          0.7    689.82682    998.07153    14982.333 
     710         0.71    675.32911    998.07153    14395.027 
     720         0.72    660.55926    998.07153    14071.062 
     730         0.73    657.23491    998.07153    13618.132 
     740         0.74    663.04269    998.07153    13008.796 
     750         0.75    667.15793    998.07153     12498.05 
     760         0.76    659.67208    998.07153    12469.746 
     770         0.77    634.94554    998.07153    13096.839 
     780         0.78    595.52042    998.07153    14330.989 
     790         0.79    555.31243    998.07153    15715.564 
     800          0.8    531.33153    998.07153     16751.06 
     810         0.81    530.11794    998.07153    17148.368 
     820         0.82     545.0452    998.07153    17028.746 
     830         0.83    565.75636    998.07153    16677.381 
     840         0.84    585.44996    998.07153     16376.59 
     850         0.85    600.97247    998.07153    16212.435 
     860         0.86    614.23277    998.07153    16130.384 
     870         0.87    631.99982    998.07153    15949.604 
     880         0.88    657.22299    998.07153    15614.289 
     890         0.89    684.42933    998.07153    15354.612 
     900          0.9    704.09129    998.07153    15474.433 
     910         0.91    705.83899    998.07153     16305.94 
     920         0.92    682.18365    998.07153    18073.324 
     930         0.93    639.84593    998.07153    20449.717 
     940         0.94    603.06871    998.07153    22627.012 
     950         0.95    592.78636    998.07153    23822.099 
     960         0.96    611.32639    998.07153    23855.127 
     970         0.97    649.17722    998.07153    22975.824 
     980         0.98    691.86904    998.07153    21729.994 
     990         0.99    725.48302    998.07153    20624.301 
    1000            1    744.15883    998.07153    19899.909 
Loop time of 18.2699 on 1 procs for 900 steps with 64 atoms

Performance: 4.256 ns/day, 5.639 hours/ns, 49.261 timesteps/s
100.0% CPU use with 1 MPI tasks x no OpenMP threads

MPI task timing breakdown:
Section |  min time  |  avg time  |  max time  |%varavg| %total
---------------------------------------------------------------
Pair    | 18.261     | 18.261     | 18.261     |   0.0 | 99.95
Neigh   | 0.0032509  | 0.0032509  | 0.0032509  |   0.0 |  0.02
Comm    | 0.0028848  | 0.0028848  | 0.0028848  |   0.0 |  0.02
Output  | 0.00039439 | 0.00039439 | 0.00039439 |   0.0 |  0.00
Modify  | 0.0015725  | 0.0015725  | 0.0015725  |   0.0 |  0.01
Other   |            | 0.0006707  |            |       |  0.00

Nlocal:        64.0000 ave          64 max          64 min
Histogram: 1 0 0 0 0 0 0 0 0 0
Nghost:        877.000 ave         877 max         877 min
Histogram: 1 0 0 0 0 0 0 0 0 0
Neighs:         0.00000 ave           0 max           0 min
Histogram: 1 0 0 0 0 0 0 0 0 0
FullNghs:      5850.00 ave        5850 max        5850 min
Histogram: 1 0 0 0 0 0 0 0 0 0

Total # of neighbors = 5850
Ave neighs/atom = 91.406250
Neighbor list builds = 16
Dangerous builds = 0
Setting up Verlet run ...
  Unit style    : metal
  Current step  : 1000
  Time step     : 0.001
Per MPI rank memory allocation (min/avg/max) = 3.089 | 3.089 | 3.089 Mbytes
Step Time Temp Volume Press 
    1000            1    744.15883    998.07153    19899.909 
    1100          1.1    720.78093    998.07153    22059.309 
    1200          1.2    647.13605    998.07153    22923.803 
    1300          1.3     523.6859    998.07153    20069.693 
    1400          1.4    568.89856    998.07153    13246.662 
    1500          1.5    625.31998    998.07153    15387.798 
    1600          1.6    699.11205    998.07153    16299.827 
    1700          1.7    600.86536    998.07153    20197.267 
    1800          1.8    703.39347    998.07153    19576.523 
    1900          1.9    748.25609    998.07153    20549.543 
    2000            2    611.91722    998.07153    21186.346 
    2100          2.1    665.27587    998.07153    16705.873 
    2200          2.2    588.65577    998.07153    23538.529 
    2300          2.3    802.59446    998.07153      19784.7 
    2400          2.4    741.77973    998.07153    21728.766 
    2500          2.5    656.35306    998.07153    20805.254 
    2600          2.6    625.97744    998.07153    20540.001 
    2700          2.7    584.04361    998.07153    22868.651 
    2800          2.8    665.88281    998.07153    18897.283 
    2900          2.9    716.20306    998.07153    19862.068 
    3000            3    669.57643    998.07153    21012.728 
    3100          3.1    680.10862    998.07153    17745.825 
    3200          3.2    625.51327    998.07153    15447.706 
    3300          3.3    616.97655    998.07153    15643.813 
    3400          3.4    732.68496    998.07153    18545.337 
    3500          3.5    761.85565    998.07153    22451.067 
    3600          3.6    668.74367    998.07153    23988.074 
    3700          3.7    579.99387    998.07153    21155.515 
    3800          3.8    526.68549    998.07153    17660.867 
    3900          3.9     636.9667    998.07153     12191.13 
    4000            4    700.28746    998.07153    20552.225 
    4100          4.1    764.56178    998.07153     21551.05 
    4200          4.2    658.13909    998.07153     24424.72 
    4300          4.3    720.77545    998.07153    17481.471 
    4400          4.4     615.1226    998.07153    16723.948 
    4500          4.5    577.66689    998.07153    15084.982 
    4600          4.6    560.71463    998.07153    15858.129 
    4700          4.7    608.89964    998.07153    22640.662 
    4800          4.8    796.34373    998.07153    19047.531 
    4900          4.9     657.1984    998.07153    20357.757 
    5000            5    643.46644    998.07153    19441.035 
    5100          5.1    731.58252    998.07153     18947.42 
    5200          5.2     774.2526    998.07153     19997.79 
    5300          5.3    700.99398    998.07153    22114.248 
    5400          5.4    765.11979    998.07153    16641.523 
    5500          5.5    677.07959    998.07153    16499.578 
    5600          5.6    667.13809    998.07153    16022.867 
    5700          5.7    851.20659    998.07153    17502.554 
    5800          5.8    716.72903    998.07153    24430.284 
    5900          5.9    740.85906    998.07153    18509.034 
    6000            6     610.0331    998.07153    17815.318 
    6100          6.1    700.74445    998.07153    14000.441 
    6200          6.2    674.07471    998.07153    18178.996 
    6300          6.3       723.38    998.07153    20754.682 
    6400          6.4    757.34286    998.07153    25944.466 
    6500          6.5    800.70773    998.07153    21964.273 
    6600          6.6    751.59476    998.07153    17157.434 
    6700          6.7    604.82424    998.07153    19418.032 
    6800          6.8    727.11669    998.07153    17581.346 
    6900          6.9    834.82891    998.07153    17426.511 
    7000            7    698.22936    998.07153    21418.477 
    7100          7.1    752.53755    998.07153    9747.9929 
    7200          7.2    531.34391    998.07153    15543.108 
    7300          7.3    615.63929    998.07153    17072.272 
    7400          7.4    713.42585    998.07153     17814.25 
    7500          7.5    741.86223    998.07153    17225.338 
    7600          7.6    611.37524    998.07153    21279.145 
    7700          7.7    700.84975    998.07153    20804.066 
    7800          7.8    734.99592    998.07153    25772.062 
    7900          7.9    778.47558    998.07153    24069.596 
    8000            8    665.25323    998.07153    18983.091 
    8100          8.1    655.69339    998.07153    18181.257 
    8200          8.2      578.467    998.07153    20879.928 
    8300          8.3    705.85965    998.07153    21890.102 
    8400          8.4    907.46604    998.07153    22588.023 
    8500          8.5    899.03076    998.07153    20367.204 
    8600          8.6    611.26563    998.07153    19344.233 
    8700          8.7    669.58887    998.07153    19263.313 
    8800          8.8    837.20022    998.07153     19181.07 
    8900          8.9    693.61066    998.07153     21914.36 
    9000            9    596.01767    998.07153    21033.577 
    9100          9.1    633.33943    998.07153    18727.487 
    9200          9.2    819.93893    998.07153     15304.14 
    9300          9.3    626.70929    998.07153    24149.398 
    9400          9.4    759.31947    998.07153    18165.172 
    9500          9.5    720.09934    998.07153    19710.887 
    9600          9.6    634.88406    998.07153    23550.315 
    9700          9.7    795.09252    998.07153    18733.535 
    9800          9.8    749.85501    998.07153    22711.273 
    9900          9.9     598.9221    998.07153    23055.922 
   10000           10     701.2537    998.07153    14973.144 
Loop time of 192.434 on 1 procs for 9000 steps with 64 atoms

Performance: 4.041 ns/day, 5.939 hours/ns, 46.769 timesteps/s
100.0% CPU use with 1 MPI tasks x no OpenMP threads

MPI task timing breakdown:
Section |  min time  |  avg time  |  max time  |%varavg| %total
---------------------------------------------------------------
Pair    | 192.34     | 192.34     | 192.34     |   0.0 | 99.95
Neigh   | 0.0339     | 0.0339     | 0.0339     |   0.0 |  0.02
Comm    | 0.031654   | 0.031654   | 0.031654   |   0.0 |  0.02
Output  | 0.00055783 | 0.00055783 | 0.00055783 |   0.0 |  0.00
Modify  | 0.016037   | 0.016037   | 0.016037   |   0.0 |  0.01
Other   |            | 0.006865   |            |       |  0.00

Nlocal:        64.0000 ave          64 max          64 min
Histogram: 1 0 0 0 0 0 0 0 0 0
Nghost:        882.000 ave         882 max         882 min
Histogram: 1 0 0 0 0 0 0 0 0 0
Neighs:         0.00000 ave           0 max           0 min
Histogram: 1 0 0 0 0 0 0 0 0 0
FullNghs:      5808.00 ave        5808 max        5808 min
Histogram: 1 0 0 0 0 0 0 0 0 0

Total # of neighbors = 5808
Ave neighs/atom = 90.750000
Neighbor list builds = 161
Dangerous builds = 0
System init for write_data ...
Total wall time: 0:03:32
