 # Something
 64 atoms
 1 atom types
 0   10.640000000001363      xlo xhi 
 0   9.2145102962676049      ylo yhi 
 0   10.179999999999998      zlo zhi 
   0.0000000000000000        0.0000000000000000        0.0000000000000000      xy xz yz
 Atoms
 
           1           1   1.3300000000001704        5.3751310061561028        3.8174999999999990     
           2           1   1.3300000000001704        5.3751310061561028        8.9074999999999989     
           3           1   0.0000000000000000        7.6787585802230041        3.8174999999999990     
           4           1   0.0000000000000000        7.6787585802230041        8.9074999999999989     
           5           1   6.6500000000008521       0.76787585802230041        3.8174999999999990     
           6           1   6.6500000000008521       0.76787585802230041        8.9074999999999989     
           7           1   5.3200000000006815        3.0715034320892016        3.8174999999999990     
           8           1   5.3200000000006815        3.0715034320892016        8.9074999999999989     
           9           1   1.3300000000001704       0.76787585802230041        3.8174999999999990     
          10           1   1.3300000000001704       0.76787585802230041        8.9074999999999989     
          11           1   0.0000000000000000        3.0715034320892016        3.8174999999999990     
          12           1   0.0000000000000000        3.0715034320892016        8.9074999999999989     
          13           1   3.9900000000005109       0.76787585802230041        3.8174999999999990     
          14           1   3.9900000000005109       0.76787585802230041        8.9074999999999989     
          15           1   2.6600000000003408        3.0715034320892016        3.8174999999999990     
          16           1   2.6600000000003408        3.0715034320892016        8.9074999999999989     
          17           1   6.6500000000008521        5.3751310061561028        3.8174999999999990     
          18           1   6.6500000000008521        5.3751310061561028        8.9074999999999989     
          19           1   5.3200000000006815        7.6787585802230041        3.8174999999999990     
          20           1   5.3200000000006815        7.6787585802230041        8.9074999999999989     
          21           1   9.3100000000011924        5.3751310061561028        3.8174999999999990     
          22           1   9.3100000000011924        5.3751310061561028        8.9074999999999989     
          23           1   7.9800000000010218        7.6787585802230041        3.8174999999999990     
          24           1   7.9800000000010218        7.6787585802230041        8.9074999999999989     
          25           1   3.9900000000005109        5.3751310061561028        3.8174999999999990     
          26           1   3.9900000000005109        5.3751310061561028        8.9074999999999989     
          27           1   2.6600000000003408        7.6787585802230041        3.8174999999999990     
          28           1   2.6600000000003408        7.6787585802230041        8.9074999999999989     
          29           1   9.3100000000011924       0.76787585802230041        3.8174999999999990     
          30           1   9.3100000000011924       0.76787585802230041        8.9074999999999989     
          31           1   7.9800000000010218        3.0715034320892016        3.8174999999999990     
          32           1   7.9800000000010218        3.0715034320892016        8.9074999999999989     
          33           1   5.3200000000006815        1.5357517160446013        1.2724999999999997     
          34           1   5.3200000000006815        1.5357517160446013        6.3624999999999989     
          35           1   3.9900000000005109        3.8393792901115020        1.2724999999999997     
          36           1   3.9900000000005109        3.8393792901115020        6.3624999999999989     
          37           1   2.6600000000003408        6.1430068641784041        1.2724999999999997     
          38           1   2.6600000000003408        6.1430068641784041        6.3624999999999989     
          39           1   1.3300000000001704        8.4466344382453045        1.2724999999999997     
          40           1   1.3300000000001704        8.4466344382453045        6.3624999999999989     
          41           1   0.0000000000000000        1.5357517160446013        1.2724999999999997     
          42           1   0.0000000000000000        1.5357517160446013        6.3624999999999989     
          43           1   2.6600000000003408        1.5357517160446013        1.2724999999999997     
          44           1   2.6600000000003408        1.5357517160446013        6.3624999999999989     
          45           1   1.3300000000001704        3.8393792901115020        1.2724999999999997     
          46           1   1.3300000000001704        3.8393792901115020        6.3624999999999989     
          47           1   0.0000000000000000        6.1430068641784041        1.2724999999999997     
          48           1   0.0000000000000000        6.1430068641784041        6.3624999999999989     
          49           1   9.3100000000011924        3.8393792901115020        1.2724999999999997     
          50           1   9.3100000000011924        3.8393792901115020        6.3624999999999989     
          51           1   7.9800000000010218        6.1430068641784041        1.2724999999999997     
          52           1   7.9800000000010218        6.1430068641784041        6.3624999999999989     
          53           1   6.6500000000008521        8.4466344382453045        1.2724999999999997     
          54           1   6.6500000000008521        8.4466344382453045        6.3624999999999989     
          55           1   9.3100000000011924        8.4466344382453045        1.2724999999999997     
          56           1   9.3100000000011924        8.4466344382453045        6.3624999999999989     
          57           1   7.9800000000010218        1.5357517160446013        1.2724999999999997     
          58           1   7.9800000000010218        1.5357517160446013        6.3624999999999989     
          59           1   6.6500000000008521        3.8393792901115020        1.2724999999999997     
          60           1   6.6500000000008521        3.8393792901115020        6.3624999999999989     
          61           1   5.3200000000006815        6.1430068641784041        1.2724999999999997     
          62           1   5.3200000000006815        6.1430068641784041        6.3624999999999989     
          63           1   3.9900000000005109        8.4466344382453045        1.2724999999999997     
          64           1   3.9900000000005109        8.4466344382453045        6.3624999999999989     
