LAMMPS (29 Sep 2021 - Update 1)
Reading data file ...
  triclinic box = (0.0000000 0.0000000 0.0000000) to (10.520000 9.1105872 10.220000) with tilt (0.0000000 0.0000000 0.0000000)
  1 by 1 by 1 MPI processor grid
  reading atoms ...
  64 atoms
  read_data CPU = 0.001 seconds
Neighbor list info ...
  update every 1 steps, delay 0 steps, check yes
  max neighbors/atom: 2000, page size: 100000
  master list distance cutoff = 7
  ghost atom cutoff = 7
  binsize = 3.5, bins = 4 3 3
  1 neighbor lists, perpetual/occasional/extra = 1 0 0
  (1) pair mlip, perpetual
      attributes: full, newton on
      pair build: full/bin/atomonly
      stencil: full/bin/3d
      bin: standard
Setting up Verlet run ...
  Unit style    : metal
  Current step  : 0
  Time step     : 0.001
Per MPI rank memory allocation (min/avg/max) = 3.089 | 3.089 | 3.089 Mbytes
Step Time Temp Volume Press 
       0            0         1380    979.51932    7094.6116 
       1        0.001     1379.001    979.51932    7127.5415 
       2        0.002    1376.0124    979.51932    7226.0403 
       3        0.003    1371.0551    979.51932    7389.2209 
       4        0.004    1364.1596    979.51932    7609.9334 
       5        0.005    1355.3669    979.51932    7883.1738 
       6        0.006     1344.726    979.51932     8209.452 
       7        0.007    1332.2918    979.51932    8590.2134 
       8        0.008    1318.1259    979.51932    9026.5615 
       9        0.009    1302.2963    979.51932    9517.3969 
      10         0.01    1284.8775    979.51932     10061.27 
Loop time of 0.209722 on 1 procs for 10 steps with 64 atoms

Performance: 4.120 ns/day, 5.826 hours/ns, 47.682 timesteps/s
97.1% CPU use with 1 MPI tasks x no OpenMP threads

MPI task timing breakdown:
Section |  min time  |  avg time  |  max time  |%varavg| %total
---------------------------------------------------------------
Pair    | 0.20962    | 0.20962    | 0.20962    |   0.0 | 99.95
Neigh   | 0          | 0          | 0          |   0.0 |  0.00
Comm    | 3.1743e-05 | 3.1743e-05 | 3.1743e-05 |   0.0 |  0.02
Output  | 3.6409e-05 | 3.6409e-05 | 3.6409e-05 |   0.0 |  0.02
Modify  | 2.2624e-05 | 2.2624e-05 | 2.2624e-05 |   0.0 |  0.01
Other   |            | 1.057e-05  |            |       |  0.01

Nlocal:        64.0000 ave          64 max          64 min
Histogram: 1 0 0 0 0 0 0 0 0 0
Nghost:        886.000 ave         886 max         886 min
Histogram: 1 0 0 0 0 0 0 0 0 0
Neighs:         0.00000 ave           0 max           0 min
Histogram: 1 0 0 0 0 0 0 0 0 0
FullNghs:      6272.00 ave        6272 max        6272 min
Histogram: 1 0 0 0 0 0 0 0 0 0

Total # of neighbors = 6272
Ave neighs/atom = 98.000000
Neighbor list builds = 0
Dangerous builds = 0
Setting up Verlet run ...
  Unit style    : metal
  Current step  : 10
  Time step     : 0.001
Per MPI rank memory allocation (min/avg/max) = 3.089 | 3.089 | 3.089 Mbytes
Step Time Temp Volume Press 
      10         0.01    1284.8775    979.51932     10061.27 
      11        0.011    1265.9505    979.51932    10656.009 
      12        0.012    1245.6027    979.51932    11299.241 
      13        0.013    1223.9273    979.51932    11988.739 
      14        0.014    1201.0232    979.51932    12722.425 
      15        0.015    1176.9945    979.51932    13497.362 
      16        0.016    1151.9504    979.51932    14310.106 
      17        0.017    1126.0044    979.51932    15157.246 
      18        0.018    1099.2741    979.51932    16035.053 
      19        0.019    1071.8801    979.51932    16939.209 
      20         0.02    1043.9447    979.51932    17860.825 
      21        0.021    1015.5918    979.51932    18797.007 
      22        0.022    986.94754    979.51932    19746.429 
      23        0.023    958.13977    979.51932    20704.646 
      24        0.024    929.29582    979.51932    21666.117 
      25        0.025    900.54229    979.51932    22628.682 
      26        0.026    872.00423    979.51932    23587.265 
      27        0.027     843.8039    979.51932    24537.938 
      28        0.028    816.06025    979.51932    25478.053 
      29        0.029    788.88798    979.51932    26403.672 
      30         0.03    762.39647    979.51932    27311.493 
      31        0.031    736.68881    979.51932    28196.649 
      32        0.032     711.8611    979.51932    29057.299 
      33        0.033    688.00191    979.51932    29889.765 
      34        0.034    665.19135    979.51932    30691.659 
      35        0.035    643.50044    979.51932    31458.671 
      36        0.036    622.99039    979.51932    32185.793 
      37        0.037    603.71262    979.51932    32873.222 
      38        0.038    585.70899    979.51932    33521.375 
      39        0.039    569.01108    979.51932    34126.236 
      40         0.04    553.64008    979.51932    34687.794 
      41        0.041    539.60717    979.51932    35205.336 
      42        0.042    526.91365    979.51932    35679.826 
      43        0.043    515.55122    979.51932    36110.498 
      44        0.044    505.50248    979.51932    36498.419 
      45        0.045    496.74145    979.51932    36843.899 
      46        0.046    489.23392    979.51932    37148.745 
      47        0.047    482.93827    979.51932     37413.38 
      48        0.048     477.8061    979.51932    37637.614 
      49        0.049    473.78284    979.51932    37821.052 
      50         0.05    470.80824    979.51932    37962.517 
      51        0.051    468.81795    979.51932    38068.875 
      52        0.052    467.74469    979.51932    38141.847 
      53        0.053    467.51857    979.51932    38183.873 
      54        0.054    468.06773    979.51932    38195.931 
      55        0.055    469.31928    979.51932    38180.764 
      56        0.056    471.20003    979.51932    38141.705 
      57        0.057     473.6372    979.51932    38081.143 
      58        0.058    476.55897    979.51932    38001.157 
      59        0.059    479.89484    979.51932    37903.219 
      60         0.06    483.57614    979.51932    37789.036 
      61        0.061    487.53687    979.51932    37661.969 
      62        0.062    491.71416    979.51932    37524.444 
      63        0.063    496.04834    979.51932    37378.243 
      64        0.064     500.4832    979.51932    37225.845 
      65        0.065    504.96611    979.51932    37067.975 
      66        0.066    509.44822    979.51932    36907.299 
      67        0.067    513.88456    979.51932     36744.57 
      68        0.068    518.23408    979.51932    36581.931 
      69        0.069    522.45985    979.51932    36420.434 
      70         0.07    526.52904    979.51932    36261.307 
      71        0.071    530.41278    979.51932    36106.033 
      72        0.072    534.08607    979.51932    35953.557 
      73        0.073    537.52741    979.51932    35808.029 
      74        0.074    540.71845    979.51932    35670.648 
      75        0.075    543.64415    979.51932    35542.442 
      76        0.076    546.29255    979.51932    35422.393 
      77        0.077     548.6547    979.51932    35309.625 
      78        0.078    550.72397    979.51932     35201.83 
      79        0.079    552.49624    979.51932    35103.761 
      80         0.08    553.97025    979.51932    35016.806 
      81        0.081    555.14717    979.51932    34940.295 
      82        0.082    556.03043    979.51932    34874.595 
      83        0.083    556.62542    979.51932    34819.211 
      84        0.084    556.93911    979.51932    34773.334 
      85        0.085    556.98005    979.51932    34737.759 
      86        0.086    556.75837    979.51932    34712.443 
      87        0.087    556.28539    979.51932    34696.509 
      88        0.088    555.57361    979.51932    34690.449 
      89        0.089    554.63653    979.51932    34693.834 
      90         0.09    553.48854    979.51932    34706.278 
      91        0.091    552.14479    979.51932    34727.501 
      92        0.092    550.62101    979.51932    34755.723 
      93        0.093    548.93351    979.51932    34790.778 
      94        0.094    547.09934    979.51932     34831.67 
      95        0.095    545.13589    979.51932     34878.32 
      96        0.096    543.06063    979.51932    34929.268 
      97        0.097     540.8913    979.51932     34984.67 
      98        0.098    538.64575    979.51932    35043.825 
      99        0.099    536.34182    979.51932    35106.086 
     100          0.1    533.99743    979.51932     35171.23 
Loop time of 1.85567 on 1 procs for 90 steps with 64 atoms

Performance: 4.190 ns/day, 5.727 hours/ns, 48.500 timesteps/s
99.9% CPU use with 1 MPI tasks x no OpenMP threads

MPI task timing breakdown:
Section |  min time  |  avg time  |  max time  |%varavg| %total
---------------------------------------------------------------
Pair    | 1.8546     | 1.8546     | 1.8546     |   0.0 | 99.94
Neigh   | 0.00020733 | 0.00020733 | 0.00020733 |   0.0 |  0.01
Comm    | 0.00029108 | 0.00029108 | 0.00029108 |   0.0 |  0.02
Output  | 0.0003112  | 0.0003112  | 0.0003112  |   0.0 |  0.02
Modify  | 0.00015947 | 0.00015947 | 0.00015947 |   0.0 |  0.01
Other   |            | 7.13e-05   |            |       |  0.00

Nlocal:        64.0000 ave          64 max          64 min
Histogram: 1 0 0 0 0 0 0 0 0 0
Nghost:        886.000 ave         886 max         886 min
Histogram: 1 0 0 0 0 0 0 0 0 0
Neighs:         0.00000 ave           0 max           0 min
Histogram: 1 0 0 0 0 0 0 0 0 0
FullNghs:      6034.00 ave        6034 max        6034 min
Histogram: 1 0 0 0 0 0 0 0 0 0

Total # of neighbors = 6034
Ave neighs/atom = 94.281250
Neighbor list builds = 1
Dangerous builds = 0
Setting up Verlet run ...
  Unit style    : metal
  Current step  : 100
  Time step     : 0.001
Per MPI rank memory allocation (min/avg/max) = 3.089 | 3.089 | 3.089 Mbytes
Step Time Temp Volume Press 
     100          0.1    533.99743    979.51932     35171.23 
     110         0.11    512.05674    979.51932    35826.213 
     120         0.12    502.43112    979.51932    36153.491 
     130         0.13    513.66717    979.51932    35905.632 
     140         0.14    548.89858    979.51932    34917.571 
     150         0.15    602.60502    979.51932    33501.805 
     160         0.16    656.88855    979.51932     32230.09 
     170         0.17     691.9982    979.51932    31705.554 
     180         0.18    702.27232    979.51932    32099.751 
     190         0.19    697.35384    979.51932     33043.93 
     200          0.2    688.24284    979.51932    34189.292 
     210         0.21    676.63537    979.51932    35347.783 
     220         0.22    660.03153    979.51932    36579.428 
     230         0.23     641.2803    979.51932    37818.721 
     240         0.24    625.72542    979.51932    38865.949 
     250         0.25    615.84089    979.51932    39607.261 
     260         0.26    619.54131    979.51932    39742.413 
     270         0.27    652.72713    979.51932    38872.944 
     280         0.28    716.10791    979.51932    37098.315 
     290         0.29    780.36585    979.51932    35249.459 
     300          0.3    809.37948    979.51932    34466.857 
     310         0.31    787.41727    979.51932    35355.429 
     320         0.32    725.11781    979.51932    37535.757 
     330         0.33    651.72199    979.51932    40142.208 
     340         0.34    601.52844    979.51932    41982.564 
     350         0.35    598.37101    979.51932    42297.222 
     360         0.36     641.8949    979.51932    41031.564 
     370         0.37    707.19173    979.51932    38938.004 
     380         0.38    763.30043    979.51932    37004.816 
     390         0.39    791.95187    979.51932     35913.02 
     400          0.4    795.45557    979.51932    35631.117 
     410         0.41    792.12479    979.51932    35658.634 
     420         0.42    794.73685    979.51932    35592.328 
     430         0.43     799.2542    979.51932    35494.844 
     440         0.44    795.78184    979.51932    35596.682 
     450         0.45     777.7179    979.51932    36068.532 
     460         0.46     743.3806    979.51932    36889.022 
     470         0.47    699.15551    979.51932    37884.521 
     480         0.48    661.88158    979.51932    38512.558 
     490         0.49    649.47668    979.51932    38248.734 
     500          0.5    664.05786    979.51932    36984.248 
     510         0.51    692.83981    979.51932    35210.919 
     520         0.52    713.29731    979.51932    33747.969 
     530         0.53    699.40084    979.51932    33377.036 
     540         0.54    646.15518    979.51932    34345.627 
     550         0.55    579.15808    979.51932    35876.303 
     560         0.56    532.02097    979.51932    36882.274 
     570         0.57    521.42021    979.51932    36788.948 
     580         0.58    541.74442    979.51932    35745.203 
     590         0.59    577.14898    979.51932    34219.157 
     600          0.6     614.6324    979.51932    32654.743 
     610         0.61    645.56691    979.51932    31360.162 
     620         0.62    665.24353    979.51932     30489.16 
     630         0.63    674.70741    979.51932    30021.232 
     640         0.64     678.8073    979.51932    29829.124 
     650         0.65    680.24616    979.51932    29771.577 
     660         0.66     675.9265    979.51932    29892.701 
     670         0.67    664.95783    979.51932    30132.455 
     680         0.68    658.38549    979.51932    30261.462 
     690         0.69    664.04695    979.51932    30198.274 
     700          0.7     667.8704    979.51932    30296.054 
     710         0.71    652.96197    979.51932     30987.76 
     720         0.72    620.46752    979.51932     32203.31 
     730         0.73    588.04223    979.51932    33395.318 
     740         0.74    578.09966    979.51932    33852.101 
     750         0.75    599.93537    979.51932    33372.993 
     760         0.76    637.63239    979.51932    32446.071 
     770         0.77     662.7542    979.51932    31995.464 
     780         0.78    661.11961    979.51932    32435.759 
     790         0.79    640.52811    979.51932    33457.851 
     800          0.8    621.98414    979.51932    34332.576 
     810         0.81    633.64872    979.51932    34152.128 
     820         0.82     691.7491    979.51932     32548.82 
     830         0.83    772.36126    979.51932    30259.218 
     840         0.84    825.50717    979.51932    28818.783 
     850         0.85    819.84904    979.51932     29280.78 
     860         0.86    763.88674    979.51932    31372.232 
     870         0.87    694.43139    979.51932    33947.062 
     880         0.88    648.05006    979.51932    35882.266 
     890         0.89    634.12492    979.51932    36823.815 
     900          0.9    635.30433    979.51932    37174.274 
     910         0.91    634.69725    979.51932    37364.736 
     920         0.92    630.96675    979.51932    37523.032 
     930         0.93    627.70088    979.51932    37670.247 
     940         0.94    623.98273    979.51932    37843.496 
     950         0.95    621.61012    979.51932    38000.453 
     960         0.96     628.2385    979.51932    37992.479 
     970         0.97    649.61226    979.51932    37616.352 
     980         0.98    691.71546    979.51932    36512.507 
     990         0.99    758.78233    979.51932    34559.611 
    1000            1    832.27891    979.51932    32520.996 
Loop time of 18.432 on 1 procs for 900 steps with 64 atoms

Performance: 4.219 ns/day, 5.689 hours/ns, 48.828 timesteps/s
100.0% CPU use with 1 MPI tasks x no OpenMP threads

MPI task timing breakdown:
Section |  min time  |  avg time  |  max time  |%varavg| %total
---------------------------------------------------------------
Pair    | 18.423     | 18.423     | 18.423     |   0.0 | 99.95
Neigh   | 0.0030441  | 0.0030441  | 0.0030441  |   0.0 |  0.02
Comm    | 0.0029367  | 0.0029367  | 0.0029367  |   0.0 |  0.02
Output  | 0.00037972 | 0.00037972 | 0.00037972 |   0.0 |  0.00
Modify  | 0.0015482  | 0.0015482  | 0.0015482  |   0.0 |  0.01
Other   |            | 0.0006819  |            |       |  0.00

Nlocal:        64.0000 ave          64 max          64 min
Histogram: 1 0 0 0 0 0 0 0 0 0
Nghost:        886.000 ave         886 max         886 min
Histogram: 1 0 0 0 0 0 0 0 0 0
Neighs:         0.00000 ave           0 max           0 min
Histogram: 1 0 0 0 0 0 0 0 0 0
FullNghs:      6032.00 ave        6032 max        6032 min
Histogram: 1 0 0 0 0 0 0 0 0 0

Total # of neighbors = 6032
Ave neighs/atom = 94.250000
Neighbor list builds = 15
Dangerous builds = 0
Setting up Verlet run ...
  Unit style    : metal
  Current step  : 1000
  Time step     : 0.001
Per MPI rank memory allocation (min/avg/max) = 3.089 | 3.089 | 3.089 Mbytes
Step Time Temp Volume Press 
    1000            1    832.27891    979.51932    32520.996 
    1100          1.1    697.68887    979.51932    37179.041 
    1200          1.2    610.81445    979.51932    31926.045 
    1300          1.3    694.55038    979.51932    27132.052 
    1400          1.4    656.33521    979.51932     31137.91 
    1500          1.5    814.91145    979.51932    33749.519 
    1600          1.6    689.57132    979.51932    39127.029 
    1700          1.7    798.68754    979.51932    34811.646 
    1800          1.8    675.48708    979.51932    33712.269 
    1900          1.9    608.55489    979.51932    29467.482 
    2000            2    523.37077    979.51932    28712.197 
    2100          2.1    775.98202    979.51932    29225.383 
    2200          2.2    767.62222    979.51932    33764.429 
    2300          2.3    645.71984    979.51932    38252.245 
    2400          2.4    759.27611    979.51932    35772.558 
    2500          2.5    721.77824    979.51932    38012.111 
    2600          2.6    678.56756    979.51932    34312.086 
    2700          2.7     631.3639    979.51932    32306.303 
    2800          2.8    606.50462    979.51932    32439.958 
    2900          2.9    772.44308    979.51932    33808.104 
    3000            3    755.84546    979.51932     37255.71 
    3100          3.1    624.72955    979.51932     38746.11 
    3200          3.2    629.16268    979.51932    37254.382 
    3300          3.3    747.57639    979.51932    33950.131 
    3400          3.4    568.89834    979.51932    32459.552 
    3500          3.5    626.07495    979.51932    27642.205 
    3600          3.6    611.89806    979.51932     31565.47 
    3700          3.7    655.09509    979.51932    37788.179 
    3800          3.8    703.80422    979.51932    38790.545 
    3900          3.9    744.35243    979.51932    35801.886 
    4000            4    679.55853    979.51932     32965.42 
    4100          4.1    596.19805    979.51932    32813.918 
    4200          4.2    652.24795    979.51932    28107.433 
    4300          4.3    561.30984    979.51932    33642.751 
    4400          4.4    677.52177    979.51932    33748.819 
    4500          4.5    713.05037    979.51932    37746.417 
    4600          4.6    624.45397    979.51932    42193.969 
    4700          4.7    742.37542    979.51932    37568.477 
    4800          4.8    666.21486    979.51932    31695.714 
    4900          4.9    611.48215    979.51932    31325.257 
    5000            5    610.61926    979.51932    32362.687 
    5100          5.1    777.98842    979.51932    34464.194 
    5200          5.2    725.84778    979.51932    37127.428 
    5300          5.3    717.03822    979.51932    35397.916 
    5400          5.4    725.98701    979.51932    32534.441 
    5500          5.5     565.2189    979.51932    29376.285 
    5600          5.6    553.78823    979.51932    30916.123 
    5700          5.7     646.0404    979.51932    32084.627 
    5800          5.8    668.53645    979.51932    34614.863 
    5900          5.9    703.88189    979.51932    34473.875 
    6000            6    717.73288    979.51932    38199.518 
    6100          6.1    666.05918    979.51932    45188.775 
    6200          6.2     680.5474    979.51932    45413.665 
    6300          6.3    734.05741    979.51932    34909.114 
    6400          6.4    627.55092    979.51932    32613.326 
    6500          6.5    691.78363    979.51932    30375.709 
    6600          6.6    686.05543    979.51932    32850.392 
    6700          6.7    727.04954    979.51932    40291.294 
    6800          6.8    805.00785    979.51932     40484.02 
    6900          6.9    773.60289    979.51932    35659.668 
    7000            7    606.16755    979.51932    36073.665 
    7100          7.1    646.85612    979.51932    35410.345 
    7200          7.2    807.92053    979.51932    33698.662 
    7300          7.3    677.29586    979.51932     35373.29 
    7400          7.4    588.56465    979.51932     33173.76 
    7500          7.5    613.95212    979.51932    32604.664 
    7600          7.6    742.90755    979.51932    33535.105 
    7700          7.7    795.03693    979.51932    36073.756 
    7800          7.8    685.68987    979.51932    36839.632 
    7900          7.9    622.24851    979.51932    37377.764 
    8000            8    684.06817    979.51932    34322.821 
    8100          8.1    688.76626    979.51932    31654.332 
    8200          8.2    615.00681    979.51932    33285.383 
    8300          8.3    708.91371    979.51932    33110.686 
    8400          8.4    699.45785    979.51932    37319.914 
    8500          8.5    734.58402    979.51932    37138.005 
    8600          8.6    639.82447    979.51932     37536.21 
    8700          8.7     590.1302    979.51932    36078.095 
    8800          8.8    631.33247    979.51932    33407.763 
    8900          8.9    707.45973    979.51932    30353.894 
    9000            9    739.92114    979.51932    30058.379 
    9100          9.1    723.49371    979.51932    36724.756 
    9200          9.2     827.8597    979.51932    35073.642 
    9300          9.3    619.21479    979.51932    35324.914 
    9400          9.4    652.36169    979.51932    30061.758 
    9500          9.5    584.11665    979.51932    31818.157 
    9600          9.6    655.76931    979.51932    30727.812 
    9700          9.7    700.58288    979.51932    31363.546 
    9800          9.8    577.87819    979.51932    37265.283 
    9900          9.9    659.69931    979.51932    35684.973 
   10000           10    749.18939    979.51932    37909.112 
Loop time of 195.297 on 1 procs for 9000 steps with 64 atoms

Performance: 3.982 ns/day, 6.028 hours/ns, 46.084 timesteps/s
100.0% CPU use with 1 MPI tasks x no OpenMP threads

MPI task timing breakdown:
Section |  min time  |  avg time  |  max time  |%varavg| %total
---------------------------------------------------------------
Pair    | 195.21     | 195.21     | 195.21     |   0.0 | 99.95
Neigh   | 0.033759   | 0.033759   | 0.033759   |   0.0 |  0.02
Comm    | 0.031966   | 0.031966   | 0.031966   |   0.0 |  0.02
Output  | 0.00053832 | 0.00053832 | 0.00053832 |   0.0 |  0.00
Modify  | 0.015794   | 0.015794   | 0.015794   |   0.0 |  0.01
Other   |            | 0.006924   |            |       |  0.00

Nlocal:        64.0000 ave          64 max          64 min
Histogram: 1 0 0 0 0 0 0 0 0 0
Nghost:        886.000 ave         886 max         886 min
Histogram: 1 0 0 0 0 0 0 0 0 0
Neighs:         0.00000 ave           0 max           0 min
Histogram: 1 0 0 0 0 0 0 0 0 0
FullNghs:      6038.00 ave        6038 max        6038 min
Histogram: 1 0 0 0 0 0 0 0 0 0

Total # of neighbors = 6038
Ave neighs/atom = 94.343750
Neighbor list builds = 159
Dangerous builds = 0
System init for write_data ...
Total wall time: 0:03:35
