LAMMPS data file via write_data, version 29 Sep 2021, timestep = 10000

64 atoms
1 atom types

0 10.519999999999747 xlo xhi
0 9.110587247812074 ylo yhi
0 10.22 zlo zhi
0 0 0 xy xz yz

Masses

1 65.38

Atoms # atomic

1 1 1.1473264737053148 5.30984289866201 3.714960921531497 0 0 0
2 1 1.3645214183330248 5.064565002304582 9.03539589792987 0 0 0
3 1 0.12560520300020223 7.653791813362447 4.452149933038966 0 0 0
4 1 0.21887627436617893 7.36707602426007 9.028498814725328 0 0 0
5 1 6.48067215030008 0.840858772154206 3.3653427880205644 0 0 0
6 1 6.60993939608436 0.5460235426002273 9.063535838763885 0 0 0
7 1 5.204880505124297 3.1800365035806264 3.7136801440945657 0 0 0
8 1 5.624265925134468 3.267927815234411 8.095084395804289 0 0 0
9 1 1.3963556840758604 0.977045302705337 4.309445824366773 0 0 0
10 1 1.3016983567227431 0.7063444606212881 9.371768022371288 0 0 0
11 1 10.473055071265788 3.077664810853107 4.213357440807982 -1 0 0
12 1 10.367705209627497 2.7800161203435274 9.232142738864194 -1 0 0
13 1 3.819692089925265 0.8984679794487377 3.671934241004366 0 0 0
14 1 4.034035089448826 0.932173979764403 8.67554563337146 0 0 0
15 1 2.6620198335681735 3.167278725286641 3.7079600979803566 0 0 0
16 1 2.6562361304908424 2.8856294132299842 9.049110797138706 0 0 0
17 1 6.659797342862874 5.485514540786092 3.464056062501393 0 0 0
18 1 6.733949979782808 5.257635613628793 8.804047759580184 0 0 0
19 1 5.332131474243738 7.725742234341589 3.9158524244878863 0 0 0
20 1 5.272791912452852 7.6680844176408 9.209174558657022 0 0 0
21 1 9.235133841534982 5.3379805737991 3.931496546235085 0 0 0
22 1 9.608816093313147 5.169535786569467 9.086780861958717 0 0 0
23 1 8.116783341894543 7.514397269422234 3.919427647281325 0 0 0
24 1 8.078698478144354 7.4066487041392195 8.53754322505498 0 0 0
25 1 3.688709492898951 5.468674302763658 3.3398131644370594 0 0 0
26 1 3.9691093643255906 5.547796617923055 8.99980371960205 0 0 0
27 1 2.4569939558862828 7.786093857948332 3.747548192751981 0 0 0
28 1 2.706994765915362 7.75558183077174 8.88198319074562 0 0 0
29 1 9.310023080268946 0.7700198949060788 4.210079646531477 0 0 0
30 1 9.152882378629867 0.6567013333008231 9.294909953192903 0 0 0
31 1 7.915765748030651 3.014099531713378 3.5930897343685406 0 0 0
32 1 7.857485113401629 2.8100390170686906 9.13312149696758 0 0 0
33 1 5.263999786847666 1.631378877388979 1.1200714857511385 0 0 0
34 1 4.954685826895698 1.690836620180729 6.056374442960903 0 0 0
35 1 3.894073000581217 3.632356085319589 1.1401164111518332 0 0 0
36 1 3.848624643460005 3.9684463271770642 5.855925867163087 0 0 0
37 1 2.5058442846929045 5.944232417147893 1.0963645266900637 0 0 0
38 1 2.5267207160965643 5.821933334868743 6.337890725296387 0 0 0
39 1 1.4072092256127997 8.242605774306233 1.1308042508376008 0 0 0
40 1 1.2933456916917778 8.42152780768428 6.552194259922598 0 0 0
41 1 0.4288395722469725 1.7046836748083807 1.9052425392769337 0 0 0
42 1 10.156918132590823 1.5018868996069437 6.750333356158024 -1 0 0
43 1 2.8343998130017773 1.5952348349516599 1.2693558546484758 0 0 0
44 1 2.602045903367097 1.5920617348630084 6.528844065727127 0 0 0
45 1 1.3728701380245552 3.8104892631120735 1.1626998527673162 0 0 0
46 1 0.9629569008371968 3.747925900514613 6.824811945438962 0 0 0
47 1 10.445017675154473 6.099770781030783 1.4259052070716318 -1 0 0
48 1 10.41944693501204 6.140327585767104 6.784109719424338 -1 0 0
49 1 9.265416884631769 3.9364717851872975 1.2435905920879706 0 0 0
50 1 8.911349106993688 3.709841342148062 6.600070378668378 0 0 0
51 1 7.853900769141203 6.1364491341728495 0.7112046828377543 0 0 0
52 1 7.879155337045132 5.950199949750287 5.970785517732338 0 0 0
53 1 6.735379423247225 8.070858858572262 1.5359659263503322 0 0 0
54 1 6.246560839632142 8.169782796970125 6.150454393334182 0 0 0
55 1 9.466557990276385 8.39901095883089 1.4949086713051376 0 0 0
56 1 9.13214942650751 8.249057830501151 6.724763190837407 0 0 0
57 1 7.994568912857462 1.5969047560345686 1.5129103094226333 0 0 0
58 1 7.655058674696777 1.3554719964822763 6.557952810308165 0 0 0
59 1 6.705567452300006 3.8557360683601476 0.9515682607408632 0 0 0
60 1 6.377457158965123 3.9137406402098733 5.565093746121818 0 0 0
61 1 5.0553196701162255 5.996794449736644 1.1979931232638794 0 0 0
62 1 5.504237301665663 6.019103719592904 6.823483516963618 0 0 0
63 1 3.9940676945980087 8.414398175874688 1.0379940514714134 0 0 0
64 1 3.8833039364436805 8.18998285769893 6.251574604102271 0 0 0

Velocities

1 0.15931248473973877 5.621389845938552 -5.422556799548361
2 -0.9184775265628754 3.2766261895566324 2.7832072305399014
3 -0.012023851694111656 0.3242843436343806 0.7480037571365358
4 0.014328115969190905 0.09896663357730189 1.3462434499316573
5 -5.300114046672384 -2.6927734856676633 1.3914602877723192
6 1.9623388140756115 -1.8439707662501963 -0.6886589943975229
7 -3.769860836837533 -0.2624380958091959 3.2952156841377596
8 6.1354473357557175 3.9415850074076824 3.8550546945817517
9 0.8041554255919626 -1.2107719344213017 -2.7941045855360542
10 -4.499721480380811 -3.2634292013304793 -3.4010321402139656
11 1.2641955690208446 -0.08444415585310254 -1.4252708303337853
12 -2.7659987989675314 0.5475940330009513 -1.5805388492802275
13 1.4465090713810433 0.09887768321015908 -5.01257349136364
14 -3.4724745576438543 0.11682529404409495 -4.999674140718299
15 5.982100705345167 0.21268986176562418 -1.2466734560662778
16 -1.0388908555039145 -2.349735595478949 1.6201888929776593
17 -1.9946196306199233 -1.5775906113531948 2.219308451776816
18 -4.185793633596144 -0.017552284517417645 -5.455200071893188
19 0.3279811107031956 1.8838820010567623 1.5572392203970604
20 3.694156915894939 0.39003224870769004 1.4805503626696233
21 0.7120821302382712 3.374612211981579 5.268107905408705
22 3.8302300064309582 2.1152251203820507 1.8517911634676176
23 -3.3458446055433857 2.639741597756779 0.7786118688715552
24 -1.0743826920791726 0.9692027632489068 2.595511450513062
25 -2.8676983863803653 -3.4478865015033677 -1.5841152475605778
26 -1.58602323096803 -0.3176184867158095 -0.13096642616133497
27 4.277776424848154 -1.4484385294596813 -7.4333749773469595
28 -5.041006147853056 -2.377724846303131 0.09707396312692185
29 -5.551668912385515 -1.424894229151095 0.6896426099678976
30 -2.740306588853484 2.7395394721855926 9.472675422660055
31 -3.7367770753982774 -2.871838986877969 0.2144456062783487
32 1.6964515525598047 -0.032575168386286414 3.955558448492938
33 0.2905383237236921 -2.375364107897926 -5.550500490002869
34 5.144277393783432 1.4735648207334249 0.798694867104158
35 -3.0711289691817214 3.951295467943547 -0.7773230642190344
36 2.7498757999675623 3.034254794333287 -2.3879113414208155
37 0.31421375365915566 1.9311828575002246 0.1294997161796512
38 -1.5626848747694553 -5.081481217565336 -2.922879023630501
39 -0.8135642735117217 1.0299191472628508 0.012787908363998098
40 -1.6932387353818967 2.5838196245640495 7.254707423530777
41 -2.13443970642799 -0.4885185404326315 -0.6285255959358117
42 2.56022267584195 -0.47212332218296527 -3.4294458212796544
43 5.334430885267114 4.253189906751379 0.7446339474495297
44 1.000091952827838 -2.1226172273932207 -1.0793743691788102
45 -6.626560993803683 2.145895293483437 -3.386767885137634
46 10.273678091117505 0.05614401050939604 -1.142579075624583
47 1.2395224680731254 -2.1444133496632776 -0.09644445459724883
48 -0.5831228629135816 -1.609411542273145 2.6031262190600537
49 4.291718270338871 3.4987859617183563 -1.415258757127929
50 -1.5194577847585506 -0.2726903328472552 1.1109324352315304
51 -0.887237993721863 -0.5119615163401541 3.651407597087576
52 2.6062271623285382 5.734526547551078 -1.7220331052986138
53 -5.055996096451193 -2.748578060653884 -1.1288310358235796
54 -0.5498466536100137 1.5048346379905133 -0.5515753909688429
55 1.0394255120045761 2.478458355663671 3.996264109011397
56 3.0548152082195403 -1.1781088140013782 3.0441184473011575
57 -2.9493009690808587 3.0508595248626973 4.804889908435928
58 2.952786732209072 -0.8673610343979601 -4.839878664479136
59 4.811406056520049 -7.2999832925933825 3.0227201090731883
60 -4.216197389366176 -3.494559628044786 -0.43613122884848504
61 3.467713108156264 -6.224891787560925 0.3169396534565982
62 2.6733308017198993 0.4387306913641806 -0.1610827216571766
63 -1.2148260164471023 -0.1024471620594821 -2.2255355554875935
64 0.6679463190532805 -3.2983421347008197 -1.6537952208549964
