LAMMPS data file via write_data, version 29 Sep 2021, timestep = 10000

64 atoms
1 atom types

0 10.519999999999747 xlo xhi
0 9.110587247812074 ylo yhi
0 10.3 zlo zhi
0 0 0 xy xz yz

Masses

1 65.38

Atoms # atomic

1 1 0.9604431042057034 5.385547453538777 4.203170833772544 0 0 0
2 1 0.8454207542775042 5.091992206753375 9.450384521726262 0 0 0
3 1 10.296972321360911 7.79725529599818 3.8537024816541434 -1 0 0
4 1 10.438946699450167 7.385917373179936 9.537717360620228 -1 0 0
5 1 6.577924100038743 0.9197311862131545 4.059033131647729 0 0 0
6 1 6.3691293845364925 0.5284413621210594 9.256672764015988 0 0 0
7 1 5.282760479317958 3.2098347038491206 4.035288536056227 0 0 0
8 1 4.918633431591682 2.950426258295148 8.77968141872456 0 0 0
9 1 1.5536463000352452 0.6323793588014796 3.9957073388419775 0 0 0
10 1 1.1687154371788127 0.1696815094250033 8.644644921832167 0 0 0
11 1 10.426196309309931 3.031409675320476 3.378958970293444 -1 0 0
12 1 10.110290618764084 2.916530261158467 8.998254770167227 -1 0 0
13 1 4.095511507611937 0.9252334369984845 4.299801638842303 0 0 0
14 1 3.613373083691697 0.6921627946968076 8.804018197627132 0 0 0
15 1 2.54214024153543 3.3962346047459726 3.822152724212452 0 0 0
16 1 2.168401327702212 2.6367468039653312 9.14835416088093 0 0 0
17 1 6.748605477280116 5.7500927462118145 3.9540598116010317 0 0 0
18 1 6.294921201345748 5.1869840725646235 8.707514000540183 0 0 0
19 1 5.498262476294251 8.010540670273967 3.6319552275604954 0 0 0
20 1 5.161781218159353 7.6775515742374925 8.894927452331252 0 0 0
21 1 9.190458243342503 5.523678390702677 3.5408630646562256 0 0 0
22 1 8.817924630493527 5.062810219325472 8.939947828024081 0 0 0
23 1 7.9339151439857725 8.012662791009912 3.6422122554621246 0 0 0
24 1 7.693740178484644 7.4036440810663615 9.164864974840679 0 0 0
25 1 4.1062558413481085 5.4961323452885935 4.1857932939022495 0 0 0
26 1 3.3137737500108337 5.061305230808998 8.908088771452663 0 0 0
27 1 2.77430349597348 7.542183532295164 4.0849206028683565 0 0 0
28 1 2.7731497599535087 7.548636570675014 9.367030874384916 0 0 0
29 1 9.145249790619586 1.1955853820383577 3.9106004563495063 0 0 0
30 1 9.03578312356307 0.22753396774357157 8.335111887328628 0 0 0
31 1 7.6008755268259405 3.2611817661081015 3.5391410461353314 0 0 0
32 1 7.7629064620611326 2.568102478511184 8.850088163467714 0 0 0
33 1 5.033242381323691 1.6657717749842968 1.5344067064656806 0 0 0
34 1 5.483333265227287 1.5655225891289852 6.651273990971538 0 0 0
35 1 4.081833883167696 3.9229367871426715 1.4048592578532824 0 0 0
36 1 3.9838451282064753 3.966335348856568 6.347603705467552 0 0 0
37 1 2.8141464468825106 6.028070174800971 1.3619506759881073 0 0 0
38 1 2.67560948102236 6.125317885816054 6.4599659659681175 0 0 0
39 1 1.58625413092674 8.388525976228442 1.5754517721299286 0 0 0
40 1 1.1913714306889427 8.193722681361187 6.020268749890668 0 0 0
41 1 0.28886493396766855 1.4693953955260757 0.9733336283094834 0 0 0
42 1 0.06919945388595948 1.6514627315675952 6.537607628443753 0 0 0
43 1 2.7081722625474653 1.4805150415880592 1.2641844466172765 0 0 0
44 1 2.6172320280174657 1.62243304970592 6.2019673339623616 0 0 0
45 1 1.4887345326268469 3.886165979501418 1.2244871520269218 0 0 0
46 1 1.3507117806010207 3.8489940326238297 6.455545951587664 0 0 0
47 1 0.20062811220469462 6.080165353129948 1.437398548415082 0 0 0
48 1 0.34047669702689504 6.163301589296187 7.174388976277172 0 0 0
49 1 9.160488208592206 3.7204407619349493 1.0720319818860375 0 0 0
50 1 9.30087804909623 3.960930240524516 6.181533558601946 0 0 0
51 1 7.872416876699054 5.854238383501906 1.27664797186656 0 0 0
52 1 8.266793785646154 6.2422190100209205 6.61806700870605 0 0 0
53 1 6.633818946693871 8.31734216361058 1.0719647165588937 0 0 0
54 1 6.810317088150979 8.456163822267282 6.498832663180788 0 0 0
55 1 9.503109373753361 8.467764852612579 1.1019095203511726 0 0 0
56 1 9.275132353304327 8.320421098178429 6.0162778400939665 0 0 0
57 1 7.713535750868757 1.4362902109578581 1.6804497062249766 0 0 0
58 1 8.01535319298084 1.5971770316964193 6.449822759986986 0 0 0
59 1 6.646624954657774 3.4582638045556435 0.44216095391895205 0 0 0
60 1 6.8111060437211295 3.775427362000515 6.513929380988163 0 0 0
61 1 5.3019985190103425 5.9862457815041505 1.7126991712549409 0 0 0
62 1 5.684767719395689 6.205866176800075 6.273760832952259 0 0 0
63 1 4.238828051084004 8.215784023595315 1.646009204999578 0 0 0
64 1 4.270763717664069 8.267430711049494 6.494544756237399 0 0 0

Velocities

1 -0.6818472140186119 3.759302063821595 -2.486477062269019
2 2.419461575201347 -2.6768617694893355 -0.26660251450665096
3 -4.8736974788317085 -0.2910198312578385 -0.04461056933267931
4 -6.183662408882401 2.869239741437403 2.044014824147063
5 2.4274477490055415 1.8333950932892646 -0.47344231676816373
6 -0.5655931647126661 -0.7383943606595652 -1.9151769188742889
7 -3.6577588345455374 5.511130089428914 0.36016761571997535
8 1.8680320407523656 -0.3113459647979074 1.01649942665326
9 1.1051384588086286 -2.9936699016965966 -2.3124208812992157
10 5.198034051202557 0.7019742785772077 -2.537828328844302
11 -0.03416496236752685 5.780635046458504 -0.5135771248786579
12 -1.6637239612016013 -4.760812773800087 0.10826309750135477
13 -4.965269864816751 -3.174151596527556 1.132833105231107
14 -2.544323362771043 6.675652035277703 0.12620650174176745
15 -2.51566976889394 -0.48969172871036787 3.9309164417621743
16 -0.9394259716597537 -0.006372145819113181 -0.3198156625040517
17 -2.039530736641461 1.2502279974908705 -1.3339407399422034
18 -0.4321560511181203 3.118774087397456 1.6815945228684122
19 -4.613050719105684 -4.9002248195872475 -1.3129205185886121
20 -1.1954280034812093 4.1799107227885965 -2.5696426162674983
21 -3.2355145859745593 1.1990225860103596 -2.9396725807078665
22 1.2461178931838028 0.893937193983193 1.1163880002359579
23 2.4129219061387186 -1.220384885509288 -1.6312034772330515
24 -2.785779260211855 1.7212967998001005 5.547703168754635
25 2.855058215920098 -5.467295612043238 3.459009372339032
26 0.2309500924995267 -0.26938945846100465 2.4172641075404995
27 0.6068055634233079 0.6696764006181177 -0.84726921623353
28 2.8841269881845775 -3.686196778925381 -1.640508099641507
29 -1.7030308330767177 -0.631808644555428 2.9606885517731794
30 3.3225774517855804 1.9221401697089493 -2.8224066866014375
31 2.073109508457064 -3.2172737880057505 3.3064714695970183
32 -0.10749294806646263 2.381342926266925 -0.7167448592297797
33 5.614873326949422 0.4289214301182534 0.29850985957320425
34 -1.9382599353436063 -0.3767850772995215 0.06095898310887127
35 2.8748322387449514 -3.1391102747177304 5.288992262743402
36 0.4641646028670583 7.426884101451949 -4.09761087364081
37 2.474438109368609 -2.527497073202101 -0.46511425813686713
38 0.2952917479324922 -6.065755460899682 6.838264465635111
39 0.15061090733636753 1.946983365815145 0.037037479003464574
40 -0.4163019079868718 -2.5423402049334918 2.944851736691343
41 -2.544011490045697 -0.426443698631721 1.959716362523913
42 5.5587900109814985 -2.2490090030539838 -1.9019698360221804
43 -2.0960478862321534 0.7883462887060064 -1.2894784610924137
44 4.305612429268388 -1.2457105893292446 1.1902770802744254
45 -0.5334631537906344 -2.202004293447139 -1.6805612054124015
46 3.4865125643702912 5.065616215120807 2.6807967350877813
47 -2.692922517400486 1.2242530194238441 4.701580748432432
48 -0.8747420356232518 -4.6002119037476845 -2.3971278252278028
49 -6.783818641175203 -0.6265063711796166 -1.764273716620481
50 1.974707324402158 -2.5821702171338368 -1.9581254333629114
51 -1.8730045569161264 3.90216194207809 -0.0960049840950376
52 2.2720096938748946 -2.2111584223385425 -2.101794509243106
53 7.075843342793398 2.2949111193406693 -2.6058109516568986
54 -0.29424264089290203 0.07646960776323976 -2.4904971747420386
55 2.1681803113412323 -2.835213910176242 0.3975461198835632
56 -0.08231944931444203 -3.34451514089016 -2.9032192659271976
57 2.315653522591477 0.47677575415140255 0.6873959964270041
58 -3.1458894274844056 -0.6075559414184384 0.4131506769068504
59 -3.364369835545533 0.2998474273442111 -2.1835005646901986
60 1.8460272036643266 1.3145852216448817 -3.732518546789632
61 1.8346745707032959 1.4360997847106185 0.8931438893545217
62 -5.726404552779886 2.478746514790445 0.5746311668355157
63 1.9851001561198978 -2.6617829887122837 -1.9048533985270704
64 1.7558146030360398 1.4504056061426729 2.081847410562786
