ITEM: TIMESTEP
10000
ITEM: NUMBER OF ATOMS
64
ITEM: BOX BOUNDS xy xz yz pp pp pp
0.0000000000000000e+00 1.0519999999999747e+01 0.0000000000000000e+00
0.0000000000000000e+00 9.1105872478120737e+00 0.0000000000000000e+00
0.0000000000000000e+00 1.0300000000000001e+01 0.0000000000000000e+00
ITEM: ATOMS id type x y z
1 1 0.960443 5.38555 4.20317
2 1 0.845421 5.09199 9.45038
3 1 10.297 7.79726 3.8537
4 1 10.4389 7.38592 9.53772
5 1 6.57792 0.919731 4.05903
6 1 6.36913 0.528441 9.25667
7 1 5.28276 3.20983 4.03529
8 1 4.91863 2.95043 8.77968
9 1 1.55365 0.632379 3.99571
10 1 1.16872 0.169682 8.64464
11 1 10.4262 3.03141 3.37896
12 1 10.1103 2.91653 8.99825
13 1 4.09551 0.925233 4.2998
14 1 3.61337 0.692163 8.80402
15 1 2.54214 3.39623 3.82215
16 1 2.1684 2.63675 9.14835
17 1 6.74861 5.75009 3.95406
18 1 6.29492 5.18698 8.70751
19 1 5.49826 8.01054 3.63196
20 1 5.16178 7.67755 8.89493
21 1 9.19046 5.52368 3.54086
22 1 8.81792 5.06281 8.93995
23 1 7.93392 8.01266 3.64221
24 1 7.69374 7.40364 9.16486
25 1 4.10626 5.49613 4.18579
26 1 3.31377 5.06131 8.90809
27 1 2.7743 7.54218 4.08492
28 1 2.77315 7.54864 9.36703
29 1 9.14525 1.19559 3.9106
30 1 9.03578 0.227534 8.33511
31 1 7.60088 3.26118 3.53914
32 1 7.76291 2.5681 8.85009
33 1 5.03324 1.66577 1.53441
34 1 5.48333 1.56552 6.65127
35 1 4.08183 3.92294 1.40486
36 1 3.98385 3.96634 6.3476
37 1 2.81415 6.02807 1.36195
38 1 2.67561 6.12532 6.45997
39 1 1.58625 8.38853 1.57545
40 1 1.19137 8.19372 6.02027
41 1 0.288865 1.4694 0.973334
42 1 0.0691995 1.65146 6.53761
43 1 2.70817 1.48052 1.26418
44 1 2.61723 1.62243 6.20197
45 1 1.48873 3.88617 1.22449
46 1 1.35071 3.84899 6.45555
47 1 0.200628 6.08017 1.4374
48 1 0.340477 6.1633 7.17439
49 1 9.16049 3.72044 1.07203
50 1 9.30088 3.96093 6.18153
51 1 7.87242 5.85424 1.27665
52 1 8.26679 6.24222 6.61807
53 1 6.63382 8.31734 1.07196
54 1 6.81032 8.45616 6.49883
55 1 9.50311 8.46776 1.10191
56 1 9.27513 8.32042 6.01628
57 1 7.71354 1.43629 1.68045
58 1 8.01535 1.59718 6.44982
59 1 6.64662 3.45826 0.442161
60 1 6.81111 3.77543 6.51393
61 1 5.302 5.98625 1.7127
62 1 5.68477 6.20587 6.27376
63 1 4.23883 8.21578 1.64601
64 1 4.27076 8.26743 6.49454
