LAMMPS data file via write_data, version 29 Sep 2021, timestep = 10000

64 atoms
1 atom types

0 10.560000000000285 xlo xhi
0 9.145228263963919 ylo yhi
0 10.3 zlo zhi
0 0 0 xy xz yz

Masses

1 65.38

Atoms # atomic

1 1 1.5425066688850737 5.274900480944106 3.932812851664769 0 0 0
2 1 1.2675843978478432 5.19483585498277 8.964743564618859 0 0 0
3 1 10.498401870972943 7.556050286225402 3.8245846305777733 -1 0 0
4 1 10.505887289912627 7.593354496436437 8.865199480873354 -1 0 0
5 1 6.5771596353412525 0.7122706999269972 3.9406054239015367 0 0 0
6 1 6.701414881169962 0.8645353717499132 8.86681805857009 0 0 0
7 1 5.2359825522313725 3.0968506921018015 4.015996739638407 0 0 0
8 1 5.2218769339882245 2.9978094204907926 9.258771443739242 0 0 0
9 1 1.2315291544243594 0.6821383306231746 4.1108092251931225 0 0 0
10 1 1.484369276516201 0.7427655114131287 9.04182160627573 0 0 0
11 1 10.456581415278096 3.0187178759427904 3.8818772281269873 -1 0 0
12 1 0.13755503364559182 3.0644325155854224 8.697248607267262 0 0 0
13 1 3.9434477947782267 0.5287809642555984 3.6973016640001357 0 0 0
14 1 3.930157326790965 0.6943168431380915 8.656007076515934 0 0 0
15 1 2.596629911802536 2.740144982009628 3.7844273896629033 0 0 0
16 1 2.8646444666321167 2.9569085031637314 8.400011288361233 0 0 0
17 1 6.749340777218554 5.463855092048985 4.0750793321732335 0 0 0
18 1 6.625083032937918 5.209454744914672 9.424158125149194 0 0 0
19 1 5.204084867653592 7.7120038776406385 3.8106534948156794 0 0 0
20 1 5.085370981480974 7.491777205831965 8.96770709560411 0 0 0
21 1 9.538000085493929 5.223061921404488 4.198865424763643 0 0 0
22 1 9.22425589444528 5.191334291831775 9.12874711038212 0 0 0
23 1 7.890682380224616 7.390257257666387 3.246489281808636 0 0 0
24 1 7.693980029282832 7.728215622078114 8.786194346780398 0 0 0
25 1 4.13773689676479 5.627273851346015 4.000434026348564 0 0 0
26 1 3.86183925067058 5.25979826052432 9.677288263719516 0 0 0
27 1 2.5573795432159634 7.613147436666014 4.048746516723701 0 0 0
28 1 2.675298065336805 7.470621927952593 9.181044089902048 0 0 0
29 1 9.28133150588771 0.7968952016416152 3.357206301334119 0 0 0
30 1 9.233568367766184 0.7912571458473188 8.891500192264875 0 0 0
31 1 7.788418048247427 3.0429868144542684 4.162359451029475 0 0 0
32 1 7.966675624084539 3.189917837898071 8.922331693300219 0 0 0
33 1 5.090426129928131 1.3253819070972097 1.2731607249963957 0 0 0
34 1 5.2015510592732905 1.472582436753374 6.102589099128725 0 0 0
35 1 3.943728441517296 3.704318923464659 1.458869464976797 0 0 0
36 1 3.8949083573071186 4.126589981554111 5.9228796578245255 0 0 0
37 1 2.5211737781114745 6.011539811833584 1.4365094582628912 0 0 0
38 1 2.592892135790682 5.976123854700607 7.018601300530043 0 0 0
39 1 1.383324022110329 8.480638598609707 1.4448412748154413 0 0 0
40 1 1.408819982134413 8.262783633054239 6.977574469767463 0 0 0
41 1 0.08789958233393767 1.6347917820708346 1.1554106212630013 0 0 0
42 1 10.429919854833841 1.800029001882248 6.1806821831503465 -1 0 0
43 1 2.611468499435002 1.67995447439675 0.8025416294667884 0 0 0
44 1 2.347631897040869 1.5600785413688327 6.260562833642044 0 0 0
45 1 1.1976426128468687 3.8308467034087643 1.595259715200215 0 0 0
46 1 1.245863441134471 3.99008176822438 6.411605787972662 0 0 0
47 1 0.07717465075867135 6.1782391130352075 1.090513240278918 0 0 0
48 1 0.06850751388447338 6.159941606165912 6.611165767662872 0 0 0
49 1 9.214804805841583 3.784813038926459 1.2422194865093859 0 0 0
50 1 9.110149110141045 4.038423174861542 6.703467549785218 0 0 0
51 1 8.017284064646981 5.83128396466482 1.2769160695967114 0 0 0
52 1 8.167467403855053 6.322874298332559 6.235312382407883 0 0 0
53 1 6.697480938661471 8.405128930326399 1.2019557089134787 0 0 0
54 1 6.574997150299634 8.528013709722082 6.382383959346773 0 0 0
55 1 9.453406152522634 8.492167232504462 0.7653396759652086 0 0 0
56 1 9.46599721279014 8.63316861974225 6.244486273277469 0 0 0
57 1 7.831167129083451 1.6377517123730727 1.128028499218806 0 0 0
58 1 7.8942836927961615 1.6095367780286507 6.519741282712047 0 0 0
59 1 6.533847906177632 3.8447517952086385 1.9628117854856098 0 0 0
60 1 6.380564778691659 3.9153561126122955 6.583476457774655 0 0 0
61 1 5.359609455663787 5.838263199550102 1.4672496365503056 0 0 0
62 1 5.214051949355013 6.197540241608809 6.607561361937282 0 0 0
63 1 4.092354455882066 8.09271450214715 1.2664721336776983 0 0 0
64 1 4.100827874232204 8.36092367988029 6.45196948281821 0 0 0

Velocities

1 -1.6003468232047688 1.8804079537244816 0.2537782748034528
2 3.2869268848644464 -0.016474519788933446 2.403724889602637
3 1.521094249342333 1.6395129450923125 -4.407198584124334
4 -0.039170636190350536 -3.8086030107445175 0.18010845788707863
5 -2.102016800391094 -1.91508887254491 0.791990849200271
6 -3.939589565546321 -6.1277524861100865 -0.37789433210806056
7 0.29440524773790605 -1.7696663472711813 -2.7367402373594314
8 2.431990325497779 0.8680329018868592 2.9335591965911934
9 -2.5270501242610353 -3.7728771146344258 -1.4940621856310126
10 -1.8824459979043187 2.359530272047652 1.7177244949809338
11 -0.9031366920025217 2.093154454597346 -2.9317249534629886
12 -1.99870609402488 0.8983757140932953 -3.149745956926799
13 0.7425043457957414 4.075903446508694 1.9944030363314684
14 -2.008707349547776 2.063950221902876 1.5793413580703903
15 8.466026523497264 1.1793432832817052 2.89829705089464
16 -0.15344056343047838 -0.7712763128497601 -2.182029440428538
17 0.3851470134174487 0.6694870647180334 -0.5023727771832613
18 -0.9426926355940474 0.3423446664487366 3.8627982012301825
19 -3.068744829790362 1.1474779845619854 1.853201988779911
20 1.1860989560603912 0.6984098694026115 4.871842523226371
21 -4.682467588289541 -1.1237352534866822 0.7148587711135147
22 -0.7296461444988094 3.3075753160921093 0.1109797649600865
23 0.6539203715582873 1.4548524874251005 -0.929387572539538
24 -0.029900038468210408 -5.899750823768847 -2.7125584296234697
25 -2.5948171215568365 -6.498577498462013 -2.000030796716265
26 6.763874257717199 -3.50741490476658 8.008074099423828
27 1.5326147050786716 -4.669488984211361 3.7176556462477945
28 0.6014842836297897 2.2819329337677536 -3.7406568957508854
29 0.18794477524967285 3.382685117864101 3.448144349396258
30 -0.6563842591615365 -1.9566319390197304 2.1560304768266474
31 2.9907074653932586 2.0363957708987055 -3.2633446281890777
32 4.301813698477152 5.227669350772519 -2.4170929935748777
33 3.953297695162221 0.45879047813585927 -5.079541832199316
34 1.7708161673645926 1.8211441954150105 -3.457481242809948
35 2.5260812727025272 3.4900713079494676 0.5886177610872826
36 1.5899138144348484 0.49901497544035106 -7.066838452873989
37 -0.6421510780854351 -1.527750542904049 0.054811345524475606
38 0.15957439851758953 -3.184747597342654 5.785686385461871
39 3.4423267399758224 -2.923699496096846 0.5764185600122178
40 5.2880765978560325 4.823778556438528 1.6508738501482618
41 -0.3266124174172383 1.3955257274355024 -0.6134971571675344
42 -1.6199870981948266 3.436874890412298 -0.10392951153589201
43 -1.0187185713946736 -0.6803179328948068 3.0061473444674114
44 0.7187177687011063 -2.327403319713836 -2.365725562663629
45 -0.4360400104378939 0.11050025889539722 0.18192434641010344
46 1.1905031068355794 3.491669615477586 -1.3848246856502315
47 4.215669401745782 -2.7347539972893666 -5.093435840168204
48 -0.019955779862428063 3.0378594429340313 2.527892651599948
49 0.3898654647097594 0.889818886776281 -3.6134919522515223
50 0.5003861601156754 -0.19465949357389026 -2.307843179806718
51 -2.450299398744844 -8.102697191330268 0.47287797048380886
52 -2.34719887280106 -1.8363693281269104 -0.2960931477037064
53 0.355536793122561 2.227756213047622 -1.1768878638193025
54 -1.6503953659921615 -1.3222320691095906 0.32372613884054996
55 -5.996649686310321 1.7241693320961158 1.290846700527976
56 2.1377962215808326 -1.6234131628590303 3.8515101549874595
57 -3.2281117120563536 0.29295605931868374 0.8136227930405019
58 -4.586209778713106 -0.0586392969160111 2.2975220361995112
59 -2.8855850671982117 -2.82955291341841 -2.2176532741743302
60 -2.662549700570243 4.2939481949317715 2.2817513506633467
61 -1.6526035292791277 -1.3124181276406992 3.3713969957296466
62 1.0071924245670205 -5.078313116025696 0.04983968239821459
63 -2.062872849037934 5.029632538508249 0.6462119367995033
64 -1.147102950750261 2.9437532246015485 -5.646107947505673
