ITEM: TIMESTEP
10000
ITEM: NUMBER OF ATOMS
64
ITEM: BOX BOUNDS xy xz yz pp pp pp
0.0000000000000000e+00 1.0560000000000285e+01 0.0000000000000000e+00
0.0000000000000000e+00 9.1452282639639186e+00 0.0000000000000000e+00
0.0000000000000000e+00 1.0300000000000001e+01 0.0000000000000000e+00
ITEM: ATOMS id type x y z
1 1 1.54251 5.2749 3.93281
2 1 1.26758 5.19484 8.96474
3 1 10.4984 7.55605 3.82458
4 1 10.5059 7.59335 8.8652
5 1 6.57716 0.712271 3.94061
6 1 6.70141 0.864535 8.86682
7 1 5.23598 3.09685 4.016
8 1 5.22188 2.99781 9.25877
9 1 1.23153 0.682138 4.11081
10 1 1.48437 0.742766 9.04182
11 1 10.4566 3.01872 3.88188
12 1 0.137555 3.06443 8.69725
13 1 3.94345 0.528781 3.6973
14 1 3.93016 0.694317 8.65601
15 1 2.59663 2.74014 3.78443
16 1 2.86464 2.95691 8.40001
17 1 6.74934 5.46386 4.07508
18 1 6.62508 5.20945 9.42416
19 1 5.20408 7.712 3.81065
20 1 5.08537 7.49178 8.96771
21 1 9.538 5.22306 4.19887
22 1 9.22426 5.19133 9.12875
23 1 7.89068 7.39026 3.24649
24 1 7.69398 7.72822 8.78619
25 1 4.13774 5.62727 4.00043
26 1 3.86184 5.2598 9.67729
27 1 2.55738 7.61315 4.04875
28 1 2.6753 7.47062 9.18104
29 1 9.28133 0.796895 3.35721
30 1 9.23357 0.791257 8.8915
31 1 7.78842 3.04299 4.16236
32 1 7.96668 3.18992 8.92233
33 1 5.09043 1.32538 1.27316
34 1 5.20155 1.47258 6.10259
35 1 3.94373 3.70432 1.45887
36 1 3.89491 4.12659 5.92288
37 1 2.52117 6.01154 1.43651
38 1 2.59289 5.97612 7.0186
39 1 1.38332 8.48064 1.44484
40 1 1.40882 8.26278 6.97757
41 1 0.0878996 1.63479 1.15541
42 1 10.4299 1.80003 6.18068
43 1 2.61147 1.67995 0.802542
44 1 2.34763 1.56008 6.26056
45 1 1.19764 3.83085 1.59526
46 1 1.24586 3.99008 6.41161
47 1 10.6372 6.17824 1.09051
48 1 0.0685075 6.15994 6.61117
49 1 9.2148 3.78481 1.24222
50 1 9.11015 4.03842 6.70347
51 1 8.01728 5.83128 1.27692
52 1 8.16747 6.32287 6.23531
53 1 6.69748 8.40513 1.20196
54 1 6.575 8.52801 6.38238
55 1 9.45341 8.49217 0.76534
56 1 9.466 8.63317 6.24449
57 1 7.83117 1.63775 1.12803
58 1 7.89428 1.60954 6.51974
59 1 6.53385 3.84475 1.96281
60 1 6.38056 3.91536 6.58348
61 1 5.35961 5.83826 1.46725
62 1 5.21405 6.19754 6.60756
63 1 4.09235 8.09271 1.26647
64 1 4.10083 8.36092 6.45197
