LAMMPS data file via write_data, version 29 Sep 2021, timestep = 10000

64 atoms
1 atom types

0 10.479999999999203 xlo xhi
0 9.075946231660229 ylo yhi
0 10.5 zlo zhi
0 0 0 xy xz yz

Masses

1 65.38

Atoms # atomic

1 1 1.429156805548135 5.459294916567329 3.434786014680215 0 0 0
2 1 0.7018808385785765 4.589298805761534 9.223522974907208 0 0 0
3 1 0.49467153390414353 7.499336309913278 3.938819174970831 0 0 0
4 1 9.743107414298422 6.978796809683355 8.947293946231085 -1 0 0
5 1 6.567243910319221 0.846663038903093 4.059397025852366 0 0 0
6 1 5.525055671817897 0.0950955978863647 8.806501303786918 0 0 0
7 1 5.609313142846759 3.4286644579636936 3.921087464114731 0 0 0
8 1 4.373430334294987 2.248146736314455 9.14176057268389 0 0 0
9 1 1.4680135528922167 1.0436983820466006 4.112770316090768 0 0 0
10 1 0.29774503774496736 0.2968521737160974 9.013740608385488 0 0 0
11 1 10.438733947233231 3.302444001224214 4.264913538297984 -1 0 0
12 1 9.484923659191045 2.5607252436757593 9.22370190789102 -1 0 0
13 1 4.09397105154902 0.9877370881172517 3.9640902954732686 0 0 0
14 1 2.8446114872437214 8.981548829340126 9.033843815623118 0 -1 0
15 1 2.716244477385088 3.466157929509341 3.69945331994067 0 0 0
16 1 1.8433530957399678 2.433577985508296 9.065083974998128 0 0 0
17 1 6.8199706510198155 5.636093843175071 4.3221922251544305 0 0 0
18 1 5.70957387609202 4.535166316053854 9.264843574095373 0 0 0
19 1 5.451299593158258 7.521220860944216 4.644587428700425 0 0 0
20 1 4.4493639372960585 6.9732664772511574 9.311552868727112 0 0 0
21 1 9.563357523579564 5.449460516416137 3.673502103217975 0 0 0
22 1 8.164152970813221 4.79977865275307 8.936114994422272 0 0 0
23 1 8.01753897050072 7.775584983947323 3.7532877198285806 0 0 0
24 1 7.189651274132592 7.165516282985648 9.55951575478336 0 0 0
25 1 4.312596629635413 5.5120955264710085 3.5822449775291103 0 0 0
26 1 3.1999295601154185 4.551327655202978 9.715027740815591 0 0 0
27 1 2.8168949337661577 7.7671538025085445 3.7672745071670226 0 0 0
28 1 1.9365179009227416 6.912123561276253 9.039669453043187 0 0 0
29 1 9.377127747986364 0.9918771865123562 3.9105644292350976 0 0 0
30 1 8.328827394237589 0.3313133571140655 9.706391716626673 0 0 0
31 1 8.009373924713394 3.2668917000053708 3.901069443637221 0 0 0
32 1 6.942941579021496 2.4274359032727104 9.68445712627606 0 0 0
33 1 5.323756931940815 1.5171767189545462 1.2730965392406852 0 0 0
34 1 5.611323561719128 1.914634750524373 6.670443560436857 0 0 0
35 1 4.106699212828514 3.761052577329744 1.3986057480249403 0 0 0
36 1 4.339643012326043 4.348418274292578 6.711960150739546 0 0 0
37 1 2.8533300576212763 6.023554671863244 1.3069763465481525 0 0 0
38 1 3.1437213745895565 6.3908144122925865 6.087822995868947 0 0 0
39 1 1.3436685038791156 8.35807527649666 0.751325151212636 0 0 0
40 1 1.6982211623479329 8.686461858259712 6.2000174186080566 0 0 0
41 1 0.1870930290896558 1.769016737049529 0.7563180352404932 0 0 0
42 1 0.42688001208720494 1.8097193532623372 6.669614119793943 0 0 0
43 1 2.7217609437098638 1.5079438727897359 1.262787136525296 0 0 0
44 1 3.027552644990464 1.8652800365772622 6.058765170193949 0 0 0
45 1 1.4890230587786744 3.7879470483441477 1.4542032415880342 0 0 0
46 1 1.8859469644849916 4.291647249423323 6.27881576841858 0 0 0
47 1 0.20747956011481472 5.954021185975057 0.864923969383525 0 0 0
48 1 0.5863663635555384 6.469882765605616 6.540508597316139 0 0 0
49 1 9.364622390588792 3.8404093587623858 1.3915750527408717 0 0 0
50 1 9.709392902384996 4.202922042251754 6.9353361632317965 0 0 0
51 1 7.9322309001566875 6.145489787030385 1.2954638532933598 0 0 0
52 1 8.365988972777075 6.29847459634811 6.389376200471922 0 0 0
53 1 6.621604306184788 8.496762445564677 1.4039671798453799 0 0 0
54 1 6.943647342600945 8.686689874654023 6.466472585750687 0 0 0
55 1 9.486173646300077 8.509087721271428 1.6346486952389199 0 0 0
56 1 9.565773323480594 8.529094019968293 6.5058960390741944 0 0 0
57 1 7.872918401370381 1.6820338661434657 1.965055565770386 0 0 0
58 1 8.515022204848576 1.9283443320108749 6.268928433012308 0 0 0
59 1 6.889012283010042 3.883243526986137 1.6359239838931026 0 0 0
60 1 7.035521904122946 3.964682377017513 6.583317389222613 0 0 0
61 1 5.508889310812882 5.8257639605389375 1.1731206102017535 0 0 0
62 1 6.141595382719801 6.3074991858343665 7.0303678459089785 0 0 0
63 1 4.002319236403421 8.290143751634531 1.498576633034324 0 0 0
64 1 4.05224667057578 8.625593077709024 6.912727502979788 0 0 0

Velocities

1 4.070277646059474 0.19101332597145868 4.474273879913489
2 -3.8792770186710563 3.308973738957119 0.7469591791857735
3 -3.365286405344141 2.957066068804306 -3.7443038346864483
4 1.414769076143192 5.383775054260605 1.199880242508609
5 -3.624893483399438 2.276309413428606 4.387990519111578
6 -1.2873852994489574 2.0996557307512607 0.5272447684155341
7 4.05569390518755 -3.895801905611494 1.310390582879085
8 -0.5225537306163262 0.4895914758388717 1.6780121121131168
9 -0.36913744930656184 3.5474323702218764 -4.840248690568458
10 -0.9490704549075262 0.18042657014031518 1.6221204222721066
11 -3.6258418594692037 -1.888154327003161 -3.2835729368029796
12 3.0967571921978516 5.213813520920492 -0.2577080441681588
13 0.21047161543266435 5.6042520175427635 -6.1568641074009625
14 1.181367294770901 2.6396627707093328 0.49853717675771797
15 -0.6729114362396936 -0.8722092270833253 4.590575165565597
16 0.750719282521319 0.4823854370652671 -0.3437224139042284
17 -1.6312137757641416 -2.6746269246422933 -2.016019250303768
18 2.5312160992591872 5.841628453353189 2.931909459620331
19 -2.0380702820317285 -2.659638593546353 2.441622935428187
20 -1.1211983865271253 -2.838426133409575 -1.35464697749725
21 0.7808777812070812 0.05107490633767931 3.7200606173988606
22 1.3507743468209952 7.016230645027065 -1.4958678707484985
23 -8.660345841593204 4.801859717966702 0.37410854062124327
24 -2.8244412392822134 3.257721472250851 -0.9589618860223715
25 -4.383697484056701 -1.7795289002995334 3.0946487623070484
26 -0.20434053645572167 1.7118830167077745 2.558623138494918
27 2.7220920231489227 -2.720235514728627 6.277377279111438
28 0.3109535783817237 -5.734766948684279 3.1118782741826325
29 2.570465830080668 -3.266241448505129 -0.10089057660486991
30 -7.542218126150762 3.611061409817437 -0.9983420520342411
31 -7.090272500116521 2.1519255852878705 -1.6027911580960783
32 -5.607174656207033 -0.8373145882922777 -5.030750414471393
33 -0.34911552262172924 -2.3160750734633853 1.9725282704519986
34 3.6834255643054568 -3.697479331443599 2.2082706332702924
35 -0.3780146040380975 -1.6214943415408838 -1.7752608771621272
36 1.1200731466883438 -0.9462364900312463 0.5163367156822457
37 2.9466872420247396 -0.315617126062202 -0.30718095247292077
38 -3.82352020351292 1.2048942525266417 3.2404142148105506
39 0.7574402992021206 -0.2567136449711888 4.603205715912718
40 -2.656943099193039 -4.704305854562726 -2.418679749743855
41 -4.377814153339795 -5.54809073883549 1.3063740103308177
42 -1.2406173190610221 -1.4255185532167327 -8.427894384342629
43 -5.441944596918015 -0.23496878105966107 -1.8266009303130266
44 2.332282785230037 0.5973396939294954 1.7123223703206014
45 -0.8734359487022446 -3.968249145879121 -3.3995792508237432
46 5.005568134971678 0.41057207908090376 -0.019610476513129006
47 2.8348398789278884 3.1593771162131192 -2.3455265093548867
48 1.3237594362930962 -2.19162651579273 -0.8880031851972358
49 -1.0374305418468615 -0.15855733124950902 -1.8814342718001518
50 6.853460597836081 -1.8980943582600878 -0.727373852977063
51 3.977962199926721 1.733053171777229 3.0880514527351597
52 -2.5617805260401414 -0.8293678575676459 -2.835604219460518
53 4.0019820748498525 -0.9870292387167051 -0.9523832421137877
54 1.9110269308078656 -3.1889534113610045 0.7120380043930233
55 4.834990735801218 -0.5721000706683642 -1.56091401202019
56 1.3615742890976423 0.4253905807024963 0.49911781590787946
57 4.014553378589636 -4.111865647685322 0.4221915575710591
58 -1.8997854672628611 -0.49766883491980446 3.0172457967485875
59 1.0139339548922073 1.128188523762466 -0.08792152266132895
60 5.318243141417397 7.150639472932401 2.2322832076885435
61 0.2721435504417285 0.06723330687772198 -2.177398240068055
62 2.599114205446937 -6.108388960883551 -2.982550697030313
63 -1.7291623318657332 -4.162543754683479 -4.114242652594182
64 4.559397062028496 0.21345867549718878 -0.16374358175205042
