ITEM: TIMESTEP
10000
ITEM: NUMBER OF ATOMS
64
ITEM: BOX BOUNDS xy xz yz pp pp pp
0.0000000000000000e+00 1.0479999999999203e+01 0.0000000000000000e+00
0.0000000000000000e+00 9.0759462316602288e+00 0.0000000000000000e+00
0.0000000000000000e+00 1.0500000000000000e+01 0.0000000000000000e+00
ITEM: ATOMS id type x y z
1 1 1.42916 5.45929 3.43479
2 1 0.701881 4.5893 9.22352
3 1 0.494672 7.49934 3.93882
4 1 9.74311 6.9788 8.94729
5 1 6.56724 0.846663 4.0594
6 1 5.52506 0.0950956 8.8065
7 1 5.60931 3.42866 3.92109
8 1 4.37343 2.24815 9.14176
9 1 1.46801 1.0437 4.11277
10 1 0.297745 0.296852 9.01374
11 1 -0.0412661 3.30244 4.26491
12 1 9.48492 2.56073 9.2237
13 1 4.09397 0.987737 3.96409
14 1 2.84461 -0.0943974 9.03384
15 1 2.71624 3.46616 3.69945
16 1 1.84335 2.43358 9.06508
17 1 6.81997 5.63609 4.32219
18 1 5.70957 4.53517 9.26484
19 1 5.4513 7.52122 4.64459
20 1 4.44936 6.97327 9.31155
21 1 9.56336 5.44946 3.6735
22 1 8.16415 4.79978 8.93611
23 1 8.01754 7.77558 3.75329
24 1 7.18965 7.16552 9.55952
25 1 4.3126 5.5121 3.58224
26 1 3.19993 4.55133 9.71503
27 1 2.81689 7.76715 3.76727
28 1 1.93652 6.91212 9.03967
29 1 9.37713 0.991877 3.91056
30 1 8.32883 0.331313 9.70639
31 1 8.00937 3.26689 3.90107
32 1 6.94294 2.42744 9.68446
33 1 5.32376 1.51718 1.2731
34 1 5.61132 1.91463 6.67044
35 1 4.1067 3.76105 1.39861
36 1 4.33964 4.34842 6.71196
37 1 2.85333 6.02355 1.30698
38 1 3.14372 6.39081 6.08782
39 1 1.34367 8.35808 0.751325
40 1 1.69822 8.68646 6.20002
41 1 0.187093 1.76902 0.756318
42 1 0.42688 1.80972 6.66961
43 1 2.72176 1.50794 1.26279
44 1 3.02755 1.86528 6.05877
45 1 1.48902 3.78795 1.4542
46 1 1.88595 4.29165 6.27882
47 1 0.20748 5.95402 0.864924
48 1 0.586366 6.46988 6.54051
49 1 9.36462 3.84041 1.39158
50 1 9.70939 4.20292 6.93534
51 1 7.93223 6.14549 1.29546
52 1 8.36599 6.29847 6.38938
53 1 6.6216 8.49676 1.40397
54 1 6.94365 8.68669 6.46647
55 1 9.48617 8.50909 1.63465
56 1 9.56577 8.52909 6.5059
57 1 7.87292 1.68203 1.96506
58 1 8.51502 1.92834 6.26893
59 1 6.88901 3.88324 1.63592
60 1 7.03552 3.96468 6.58332
61 1 5.50889 5.82576 1.17312
62 1 6.1416 6.3075 7.03037
63 1 4.00232 8.29014 1.49858
64 1 4.05225 8.62559 6.91273
