LAMMPS (29 Sep 2021 - Update 1)
Reading data file ...
  triclinic box = (0.0000000 0.0000000 0.0000000) to (10.600000 9.1798693 10.460000) with tilt (0.0000000 0.0000000 0.0000000)
  1 by 1 by 1 MPI processor grid
  reading atoms ...
  64 atoms
  read_data CPU = 0.001 seconds
Neighbor list info ...
  update every 1 steps, delay 0 steps, check yes
  max neighbors/atom: 2000, page size: 100000
  master list distance cutoff = 7
  ghost atom cutoff = 7
  binsize = 3.5, bins = 4 3 3
  1 neighbor lists, perpetual/occasional/extra = 1 0 0
  (1) pair mlip, perpetual
      attributes: full, newton on
      pair build: full/bin/atomonly
      stencil: full/bin/3d
      bin: standard
Setting up Verlet run ...
  Unit style    : metal
  Current step  : 0
  Time step     : 0.001
Per MPI rank memory allocation (min/avg/max) = 3.089 | 3.089 | 3.089 Mbytes
Step Time Temp Volume Press 
       0            0         1380    1017.8272   -16234.945 
       1        0.001    1379.1299    1017.8272   -16202.645 
       2        0.002    1376.5191    1017.8272   -16105.755 
       3        0.003    1372.1697    1017.8272   -15944.459 
       4        0.004    1366.0901    1017.8272   -15719.149 
       5        0.005     1358.295    1017.8272   -15430.432 
       6        0.006    1348.8055    1017.8272   -15079.134 
       7        0.007    1337.6496    1017.8272    -14666.31 
       8        0.008     1324.862    1017.8272   -14193.781 
       9        0.009    1310.4848    1017.8272   -13665.597 
      10         0.01    1294.5671    1017.8272   -13089.755 
Loop time of 0.224658 on 1 procs for 10 steps with 64 atoms

Performance: 3.846 ns/day, 6.241 hours/ns, 44.512 timesteps/s
91.1% CPU use with 1 MPI tasks x no OpenMP threads

MPI task timing breakdown:
Section |  min time  |  avg time  |  max time  |%varavg| %total
---------------------------------------------------------------
Pair    | 0.22455    | 0.22455    | 0.22455    |   0.0 | 99.95
Neigh   | 0          | 0          | 0          |   0.0 |  0.00
Comm    | 3.2875e-05 | 3.2875e-05 | 3.2875e-05 |   0.0 |  0.01
Output  | 4.0777e-05 | 4.0777e-05 | 4.0777e-05 |   0.0 |  0.02
Modify  | 2.4287e-05 | 2.4287e-05 | 2.4287e-05 |   0.0 |  0.01
Other   |            | 1.137e-05  |            |       |  0.01

Nlocal:        64.0000 ave          64 max          64 min
Histogram: 1 0 0 0 0 0 0 0 0 0
Nghost:        886.000 ave         886 max         886 min
Histogram: 1 0 0 0 0 0 0 0 0 0
Neighs:         0.00000 ave           0 max           0 min
Histogram: 1 0 0 0 0 0 0 0 0 0
FullNghs:      5504.00 ave        5504 max        5504 min
Histogram: 1 0 0 0 0 0 0 0 0 0

Total # of neighbors = 5504
Ave neighs/atom = 86.000000
Neighbor list builds = 0
Dangerous builds = 0
Setting up Verlet run ...
  Unit style    : metal
  Current step  : 10
  Time step     : 0.001
Per MPI rank memory allocation (min/avg/max) = 3.089 | 3.089 | 3.089 Mbytes
Step Time Temp Volume Press 
      10         0.01    1294.5671    1017.8272   -13089.755 
      11        0.011    1277.1639    1017.8272   -12472.985 
      12        0.012     1258.336    1017.8272   -11819.735 
      13        0.013    1238.1505    1017.8272   -11132.438 
      14        0.014    1216.6821    1017.8272   -10407.266 
      15        0.015    1194.0128    1017.8272   -9652.7204 
      16        0.016    1170.2319    1017.8272   -8866.9839 
      17        0.017    1145.4372    1017.8272   -8053.3112 
      18        0.018    1119.7329    1017.8272   -7213.0461 
      19        0.019    1093.2287    1017.8272   -6347.5898 
      20         0.02    1066.0403    1017.8272   -5465.5516 
      21        0.021    1038.2876    1017.8272   -4569.9598 
      22        0.022    1010.0956    1017.8272   -3660.7389 
      23        0.023    981.59298    1017.8272   -2745.2447 
      24        0.024    952.91114    1017.8272   -1825.3123 
      25        0.025    924.18409    1017.8272   -904.21062 
      26        0.026    895.54709    1017.8272    15.999287 
      27        0.027    867.13505    1017.8272    927.34275 
      28        0.028    839.08139    1017.8272    1825.6853 
      29        0.029    811.51742    1017.8272    2710.8462 
      30         0.03    784.57126    1017.8272    3581.0875 
      31        0.031    758.36636    1017.8272     4432.779 
      32        0.032    733.01989    1017.8272    5258.3946 
      33        0.033    708.64172    1017.8272    6056.8557 
      34        0.034    685.33368    1017.8272    6825.5743 
      35        0.035    663.18835    1017.8272    7561.8784 
      36        0.036    642.28815    1017.8272    8262.4069 
      37        0.037    622.70449    1017.8272    8925.2713 
      38        0.038    604.49714    1017.8272    9548.8437 
      39        0.039    587.71367    1017.8272    10130.261 
      40         0.04    572.38908    1017.8272    10668.407 
      41        0.041    558.54574    1017.8272    11162.157 
      42        0.042    546.19334    1017.8272    11609.912 
      43        0.043    535.32916    1017.8272    12012.974 
      44        0.044    525.93847    1017.8272    12371.089 
      45        0.045      517.995    1017.8272    12685.896 
      46        0.046    511.46156    1017.8272    12958.135 
      47        0.047    506.29079    1017.8272    13188.395 
      48        0.048    502.42574    1017.8272    13376.484 
      49        0.049    499.80107    1017.8272    13525.149 
      50         0.05    498.34436    1017.8272    13636.826 
      51        0.051    497.97703    1017.8272    13713.378 
      52        0.052    498.61472    1017.8272    13752.481 
      53        0.053    500.16843    1017.8272    13757.878 
      54        0.054    502.54685    1017.8272    13734.941 
      55        0.055    505.65738    1017.8272    13686.625 
      56        0.056    509.40659    1017.8272    13616.115 
      57        0.057    513.70126    1017.8272    13525.943 
      58        0.058    518.44921    1017.8272    13419.262 
      59        0.059    523.55995    1017.8272    13296.705 
      60         0.06    528.94547    1017.8272     13161.49 
      61        0.061    534.52105    1017.8272    13016.779 
      62        0.062    540.20585    1017.8272    12865.541 
      63        0.063    545.92313    1017.8272    12710.161 
      64        0.064    551.60024    1017.8272    12550.618 
      65        0.065     557.1693    1017.8272     12390.06 
      66        0.066    562.56796    1017.8272    12231.251 
      67        0.067    567.73927    1017.8272    12076.707 
      68        0.068    572.63172    1017.8272    11929.034 
      69        0.069    577.19927    1017.8272    11788.682 
      70         0.07    581.40149    1017.8272    11656.987 
      71        0.071    585.20355    1017.8272      11535.4 
      72        0.072    588.57612    1017.8272    11424.404 
      73        0.073    591.49523    1017.8272    11325.471 
      74        0.074    593.94233    1017.8272     11239.57 
      75        0.075     595.9041    1017.8272    11166.387 
      76        0.076    597.37236    1017.8272    11107.722 
      77        0.077    598.34406    1017.8272    11063.419 
      78        0.078    598.82087    1017.8272    11033.572 
      79        0.079    598.80936    1017.8272    11020.138 
      80         0.08    598.32062    1017.8272    11019.902 
      81        0.081    597.36984    1017.8272    11033.837 
      82        0.082    595.97643    1017.8272    11061.451 
      83        0.083    594.16375    1017.8272    11100.828 
      84        0.084    591.95891    1017.8272    11152.788 
      85        0.085    589.39217    1017.8272    11215.179 
      86        0.086    586.49676    1017.8272    11286.414 
      87        0.087     583.3087    1017.8272    11366.671 
      88        0.088    579.86619    1017.8272     11453.77 
      89        0.089    576.20947    1017.8272    11547.692 
      90         0.09    572.38008    1017.8272     11645.02 
      91        0.091    568.42071    1017.8272    11744.816 
      92        0.092    564.37517    1017.8272    11847.612 
      93        0.093    560.28767    1017.8272    11953.071 
      94        0.094    556.20232    1017.8272    12059.934 
      95        0.095     552.1627    1017.8272     12165.19 
      96        0.096    548.21133    1017.8272    12268.815 
      97        0.097    544.38898    1017.8272    12368.611 
      98        0.098    540.73456    1017.8272     12465.43 
      99        0.099    537.28492    1017.8272     12557.91 
     100          0.1    534.07423    1017.8272    12645.321 
Loop time of 1.78624 on 1 procs for 90 steps with 64 atoms

Performance: 4.353 ns/day, 5.513 hours/ns, 50.385 timesteps/s
100.0% CPU use with 1 MPI tasks x no OpenMP threads

MPI task timing breakdown:
Section |  min time  |  avg time  |  max time  |%varavg| %total
---------------------------------------------------------------
Pair    | 1.7852     | 1.7852     | 1.7852     |   0.0 | 99.94
Neigh   | 0.0002     | 0.0002     | 0.0002     |   0.0 |  0.01
Comm    | 0.00028948 | 0.00028948 | 0.00028948 |   0.0 |  0.02
Output  | 0.00032128 | 0.00032128 | 0.00032128 |   0.0 |  0.02
Modify  | 0.00015696 | 0.00015696 | 0.00015696 |   0.0 |  0.01
Other   |            | 7.042e-05  |            |       |  0.00

Nlocal:        64.0000 ave          64 max          64 min
Histogram: 1 0 0 0 0 0 0 0 0 0
Nghost:        886.000 ave         886 max         886 min
Histogram: 1 0 0 0 0 0 0 0 0 0
Neighs:         0.00000 ave           0 max           0 min
Histogram: 1 0 0 0 0 0 0 0 0 0
FullNghs:      5698.00 ave        5698 max        5698 min
Histogram: 1 0 0 0 0 0 0 0 0 0

Total # of neighbors = 5698
Ave neighs/atom = 89.031250
Neighbor list builds = 1
Dangerous builds = 0
Setting up Verlet run ...
  Unit style    : metal
  Current step  : 100
  Time step     : 0.001
Per MPI rank memory allocation (min/avg/max) = 3.089 | 3.089 | 3.089 Mbytes
Step Time Temp Volume Press 
     100          0.1    534.07423    1017.8272    12645.321 
     110         0.11    520.08886    1017.8272    13020.518 
     120         0.12    539.91713    1017.8272    12482.767 
     130         0.13    572.70014    1017.8272    11599.047 
     140         0.14    593.02233    1017.8272    11048.259 
     150         0.15    592.48917    1017.8272    11198.864 
     160         0.16    582.23968    1017.8272    11702.575 
     170         0.17     581.3937    1017.8272    12012.673 
     180         0.18    598.85464    1017.8272    11866.078 
     190         0.19    626.60428    1017.8272    11386.664 
     200          0.2    652.49614    1017.8272    10924.607 
     210         0.21    672.28296    1017.8272    10619.949 
     220         0.22    687.13185    1017.8272    10551.177 
     230         0.23    698.09671    1017.8272    10666.263 
     240         0.24    705.45828    1017.8272    10965.677 
     250         0.25    709.52117    1017.8272     11388.91 
     260         0.26    710.63812    1017.8272    11839.536 
     270         0.27    713.84967    1017.8272    12028.298 
     280         0.28    729.15564    1017.8272    11749.132 
     290         0.29    756.72226    1017.8272    11115.996 
     300          0.3    780.44468    1017.8272    10549.145 
     310         0.31    785.90847    1017.8272    10419.409 
     320         0.32    772.86335    1017.8272    10841.124 
     330         0.33    745.10538    1017.8272    11786.289 
     340         0.34    703.80005    1017.8272    13118.516 
     350         0.35    658.32739    1017.8272    14429.036 
     360         0.36    630.37471    1017.8272    15157.003 
     370         0.37      636.463    1017.8272    14882.233 
     380         0.38    672.31792    1017.8272    13768.334 
     390         0.39    713.45177    1017.8272    12494.938 
     400          0.4    733.05705    1017.8272    11810.653 
     410         0.41    726.51851    1017.8272    11871.583 
     420         0.42    712.83175    1017.8272    12226.318 
     430         0.43    710.12767    1017.8272    12310.939 
     440         0.44    717.57241    1017.8272    12050.939 
     450         0.45    720.45814    1017.8272      11863.5 
     460         0.46    706.57571    1017.8272    12089.082 
     470         0.47    677.17693    1017.8272    12783.248 
     480         0.48    645.60023    1017.8272    13609.399 
     490         0.49    624.70505    1017.8272    14248.644 
     500          0.5    619.33123    1017.8272    14423.644 
     510         0.51    630.92305    1017.8272     13922.89 
     520         0.52      655.938    1017.8272    12852.337 
     530         0.53    683.14751    1017.8272    11526.496 
     540         0.54    699.33768    1017.8272    10379.827 
     550         0.55    696.28182    1017.8272    9688.3538 
     560         0.56    677.17101    1017.8272    9486.0546 
     570         0.57    652.19357    1017.8272    9544.5379 
     580         0.58    625.23948    1017.8272    9740.6042 
     590         0.59    593.73694    1017.8272    10037.973 
     600          0.6    561.48297    1017.8272    10313.179 
     610         0.61    540.77915    1017.8272    10341.542 
     620         0.62    539.92455    1017.8272    9898.2402 
     630         0.63    554.02271    1017.8272    9107.2383 
     640         0.64    569.94718    1017.8272    8323.8585 
     650         0.65     577.3414    1017.8272    7890.7037 
     660         0.66    574.73475    1017.8272    7847.9139 
     670         0.67    566.74747    1017.8272    8119.5041 
     680         0.68    557.63678    1017.8272    8597.6332 
     690         0.69    549.30227    1017.8272    9121.3223 
     700          0.7      544.566    1017.8272     9550.227 
     710         0.71    549.15375    1017.8272    9714.3001 
     720         0.72     568.9015    1017.8272    9480.1501 
     730         0.73    603.10625    1017.8272    8946.1722 
     740         0.74    636.85592    1017.8272    8569.0683 
     750         0.75    647.66897    1017.8272    8912.5778 
     760         0.76    629.89569    1017.8272    10104.058 
     770         0.77    606.88425    1017.8272    11439.641 
     780         0.78    609.16379    1017.8272    12040.309 
     790         0.79    643.17594    1017.8272    11693.322 
     800          0.8     686.7299    1017.8272    10944.934 
     810         0.81    713.12482    1017.8272    10538.733 
     820         0.82    717.20588    1017.8272    10632.335 
     830         0.83    713.57283    1017.8272    11013.941 
     840         0.84    713.76983    1017.8272     11393.65 
     850         0.85    716.15985    1017.8272    11624.185 
     860         0.86    714.79993    1017.8272    11846.289 
     870         0.87    708.98487    1017.8272    12010.412 
     880         0.88    706.61078    1017.8272    11902.044 
     890         0.89    717.51622    1017.8272    11321.854 
     900          0.9    740.30389    1017.8272    10276.333 
     910         0.91    763.08012    1017.8272     9208.953 
     920         0.92    773.22323    1017.8272    8572.2005 
     930         0.93    763.26486    1017.8272    8649.8875 
     940         0.94    739.44175    1017.8272    9170.1641 
     950         0.95    723.83856    1017.8272    9470.8858 
     960         0.96    731.94785    1017.8272    9177.0038 
     970         0.97    752.18091    1017.8272    8561.9523 
     980         0.98    757.80087    1017.8272    8292.7232 
     990         0.99    729.39786    1017.8272    8987.8043 
    1000            1    666.93275    1017.8272    10662.529 
Loop time of 17.6995 on 1 procs for 900 steps with 64 atoms

Performance: 4.393 ns/day, 5.463 hours/ns, 50.849 timesteps/s
100.0% CPU use with 1 MPI tasks x no OpenMP threads

MPI task timing breakdown:
Section |  min time  |  avg time  |  max time  |%varavg| %total
---------------------------------------------------------------
Pair    | 17.691     | 17.691     | 17.691     |   0.0 | 99.95
Neigh   | 0.0029862  | 0.0029862  | 0.0029862  |   0.0 |  0.02
Comm    | 0.0029145  | 0.0029145  | 0.0029145  |   0.0 |  0.02
Output  | 0.00038698 | 0.00038698 | 0.00038698 |   0.0 |  0.00
Modify  | 0.0015387  | 0.0015387  | 0.0015387  |   0.0 |  0.01
Other   |            | 0.0006615  |            |       |  0.00

Nlocal:        64.0000 ave          64 max          64 min
Histogram: 1 0 0 0 0 0 0 0 0 0
Nghost:        866.000 ave         866 max         866 min
Histogram: 1 0 0 0 0 0 0 0 0 0
Neighs:         0.00000 ave           0 max           0 min
Histogram: 1 0 0 0 0 0 0 0 0 0
FullNghs:      5742.00 ave        5742 max        5742 min
Histogram: 1 0 0 0 0 0 0 0 0 0

Total # of neighbors = 5742
Ave neighs/atom = 89.718750
Neighbor list builds = 15
Dangerous builds = 0
Setting up Verlet run ...
  Unit style    : metal
  Current step  : 1000
  Time step     : 0.001
Per MPI rank memory allocation (min/avg/max) = 3.089 | 3.089 | 3.089 Mbytes
Step Time Temp Volume Press 
    1000            1    666.93275    1017.8272    10662.529 
    1100          1.1    577.85205    1017.8272     12216.59 
    1200          1.2    760.02592    1017.8272    13278.288 
    1300          1.3    675.50238    1017.8272    17063.796 
    1400          1.4    602.87973    1017.8272    15858.728 
    1500          1.5    596.13825    1017.8272    7361.1831 
    1600          1.6    642.91618    1017.8272    5479.3787 
    1700          1.7     666.7665    1017.8272    10170.841 
    1800          1.8    749.93043    1017.8272    13079.896 
    1900          1.9    688.15103    1017.8272    16127.969 
    2000            2    710.44389    1017.8272    14189.547 
    2100          2.1    643.28851    1017.8272    15838.727 
    2200          2.2    660.49834    1017.8272    10168.817 
    2300          2.3    628.32412    1017.8272    7319.6328 
    2400          2.4    610.56661    1017.8272    10457.508 
    2500          2.5    796.57783    1017.8272    10790.379 
    2600          2.6    710.57535    1017.8272    16121.255 
    2700          2.7    628.98389    1017.8272    19132.987 
    2800          2.8    716.41636    1017.8272    16610.793 
    2900          2.9    842.98298    1017.8272    18510.324 
    3000            3    718.17047    1017.8272     15246.98 
    3100          3.1    642.04856    1017.8272     14016.92 
    3200          3.2    725.09799    1017.8272    11877.235 
    3300          3.3    773.06282    1017.8272    13660.939 
    3400          3.4     682.4781    1017.8272    15354.071 
    3500          3.5    671.03334    1017.8272    12239.321 
    3600          3.6    671.38561    1017.8272    11598.791 
    3700          3.7    737.90581    1017.8272    15957.487 
    3800          3.8    739.11155    1017.8272    18696.797 
    3900          3.9    603.32804    1017.8272    14798.938 
    4000            4    691.63538    1017.8272    8697.8026 
    4100          4.1    661.16715    1017.8272        11852 
    4200          4.2    753.80071    1017.8272    12482.816 
    4300          4.3    849.47138    1017.8272    9683.7453 
    4400          4.4    617.29887    1017.8272    10387.594 
    4500          4.5    586.64701    1017.8272    7504.3268 
    4600          4.6     678.1408    1017.8272    7876.7094 
    4700          4.7    735.20467    1017.8272    8814.5052 
    4800          4.8    635.93728    1017.8272     12090.09 
    4900          4.9     648.6793    1017.8272    14704.656 
    5000            5    741.90225    1017.8272    17352.445 
    5100          5.1    692.41283    1017.8272    17714.126 
    5200          5.2    738.49425    1017.8272    11838.018 
    5300          5.3    676.65817    1017.8272    13081.661 
    5400          5.4    734.02041    1017.8272    12223.592 
    5500          5.5    702.47358    1017.8272    14730.907 
    5600          5.6    650.46504    1017.8272    21789.773 
    5700          5.7    755.55211    1017.8272    21526.462 
    5800          5.8    690.10097    1017.8272    16815.309 
    5900          5.9    697.13244    1017.8272    9827.4111 
    6000            6    706.31836    1017.8272    10072.595 
    6100          6.1    701.51477    1017.8272    12965.654 
    6200          6.2    766.22018    1017.8272    14099.369 
    6300          6.3    654.56654    1017.8272    13328.954 
    6400          6.4    649.44355    1017.8272    11603.997 
    6500          6.5    670.66165    1017.8272    8744.9975 
    6600          6.6    668.11688    1017.8272    9448.3807 
    6700          6.7    603.04592    1017.8272    15064.876 
    6800          6.8    815.41865    1017.8272    15462.281 
    6900          6.9    816.61628    1017.8272    13902.425 
    7000            7    669.47462    1017.8272    12957.181 
    7100          7.1    634.76854    1017.8272    11253.258 
    7200          7.2    684.56618    1017.8272    10288.395 
    7300          7.3    776.86069    1017.8272    6687.5979 
    7400          7.4    618.16146    1017.8272    10869.612 
    7500          7.5    636.28892    1017.8272    14505.672 
    7600          7.6    800.78314    1017.8272    13323.004 
    7700          7.7    710.81546    1017.8272    15976.338 
    7800          7.8    609.60027    1017.8272     17956.64 
    7900          7.9    665.24925    1017.8272    14784.404 
    8000            8    772.53589    1017.8272    11833.819 
    8100          8.1    680.69661    1017.8272    11970.895 
    8200          8.2    613.48019    1017.8272     9061.857 
    8300          8.3    568.00773    1017.8272    10450.625 
    8400          8.4    695.45993    1017.8272    12888.536 
    8500          8.5    731.01047    1017.8272    14773.427 
    8600          8.6    736.83335    1017.8272    12068.708 
    8700          8.7    635.38174    1017.8272    12657.504 
    8800          8.8    817.51023    1017.8272    7814.7707 
    8900          8.9    806.41527    1017.8272    21010.362 
    9000            9    816.15955    1017.8272     20384.74 
    9100          9.1    717.06944    1017.8272    18282.495 
    9200          9.2     763.2002    1017.8272    13952.474 
    9300          9.3    684.77043    1017.8272    10435.277 
    9400          9.4    598.09196    1017.8272    11599.628 
    9500          9.5    629.28903    1017.8272    12889.483 
    9600          9.6    656.32252    1017.8272    14149.673 
    9700          9.7    702.73251    1017.8272    13718.801 
    9800          9.8    725.21138    1017.8272    12472.659 
    9900          9.9    765.59466    1017.8272    12142.756 
   10000           10    661.77574    1017.8272    10882.418 
Loop time of 176.031 on 1 procs for 9000 steps with 64 atoms

Performance: 4.417 ns/day, 5.433 hours/ns, 51.127 timesteps/s
100.0% CPU use with 1 MPI tasks x no OpenMP threads

MPI task timing breakdown:
Section |  min time  |  avg time  |  max time  |%varavg| %total
---------------------------------------------------------------
Pair    | 175.95     | 175.95     | 175.95     |   0.0 | 99.95
Neigh   | 0.031619   | 0.031619   | 0.031619   |   0.0 |  0.02
Comm    | 0.029265   | 0.029265   | 0.029265   |   0.0 |  0.02
Output  | 0.00052648 | 0.00052648 | 0.00052648 |   0.0 |  0.00
Modify  | 0.015276   | 0.015276   | 0.015276   |   0.0 |  0.01
Other   |            | 0.006626   |            |       |  0.00

Nlocal:        64.0000 ave          64 max          64 min
Histogram: 1 0 0 0 0 0 0 0 0 0
Nghost:        886.000 ave         886 max         886 min
Histogram: 1 0 0 0 0 0 0 0 0 0
Neighs:         0.00000 ave           0 max           0 min
Histogram: 1 0 0 0 0 0 0 0 0 0
FullNghs:      5714.00 ave        5714 max        5714 min
Histogram: 1 0 0 0 0 0 0 0 0 0

Total # of neighbors = 5714
Ave neighs/atom = 89.281250
Neighbor list builds = 159
Dangerous builds = 0
System init for write_data ...
Total wall time: 0:03:15
