LAMMPS (29 Sep 2021 - Update 1)
Reading data file ...
  triclinic box = (0.0000000 0.0000000 0.0000000) to (10.640000 9.2145103 10.020000) with tilt (0.0000000 0.0000000 0.0000000)
  1 by 1 by 1 MPI processor grid
  reading atoms ...
  64 atoms
  read_data CPU = 0.001 seconds
Neighbor list info ...
  update every 1 steps, delay 0 steps, check yes
  max neighbors/atom: 2000, page size: 100000
  master list distance cutoff = 7
  ghost atom cutoff = 7
  binsize = 3.5, bins = 4 3 3
  1 neighbor lists, perpetual/occasional/extra = 1 0 0
  (1) pair mlip, perpetual
      attributes: full, newton on
      pair build: full/bin/atomonly
      stencil: full/bin/3d
      bin: standard
Setting up Verlet run ...
  Unit style    : metal
  Current step  : 0
  Time step     : 0.001
Per MPI rank memory allocation (min/avg/max) = 3.089 | 3.089 | 3.089 Mbytes
Step Time Temp Volume Press 
       0            0         1380    982.38474   -1880.3028 
       1        0.001    1379.1079    982.38474   -1849.7294 
       2        0.002    1376.4331    982.38474   -1758.0322 
       3        0.003    1371.9815    982.38474   -1605.3968 
       4        0.004    1365.7652    982.38474   -1392.2014 
       5        0.005    1357.8029    982.38474    -1119.019 
       6        0.006    1348.1199    982.38474   -787.64271 
       7        0.007    1336.7493    982.38474   -402.67602 
       8        0.008    1323.7313    982.38474    34.470334 
       9        0.009     1309.113    982.38474    522.59083 
      10         0.01    1292.9473    982.38474    1060.1753 
Loop time of 0.209827 on 1 procs for 10 steps with 64 atoms

Performance: 4.118 ns/day, 5.829 hours/ns, 47.658 timesteps/s
94.7% CPU use with 1 MPI tasks x no OpenMP threads

MPI task timing breakdown:
Section |  min time  |  avg time  |  max time  |%varavg| %total
---------------------------------------------------------------
Pair    | 0.20972    | 0.20972    | 0.20972    |   0.0 | 99.95
Neigh   | 0          | 0          | 0          |   0.0 |  0.00
Comm    | 3.0587e-05 | 3.0587e-05 | 3.0587e-05 |   0.0 |  0.01
Output  | 3.6349e-05 | 3.6349e-05 | 3.6349e-05 |   0.0 |  0.02
Modify  | 2.711e-05  | 2.711e-05  | 2.711e-05  |   0.0 |  0.01
Other   |            | 1.09e-05   |            |       |  0.01

Nlocal:        64.0000 ave          64 max          64 min
Histogram: 1 0 0 0 0 0 0 0 0 0
Nghost:        886.000 ave         886 max         886 min
Histogram: 1 0 0 0 0 0 0 0 0 0
Neighs:         0.00000 ave           0 max           0 min
Histogram: 1 0 0 0 0 0 0 0 0 0
FullNghs:      5504.00 ave        5504 max        5504 min
Histogram: 1 0 0 0 0 0 0 0 0 0

Total # of neighbors = 5504
Ave neighs/atom = 86.000000
Neighbor list builds = 0
Dangerous builds = 0
Setting up Verlet run ...
  Unit style    : metal
  Current step  : 10
  Time step     : 0.001
Per MPI rank memory allocation (min/avg/max) = 3.089 | 3.089 | 3.089 Mbytes
Step Time Temp Volume Press 
      10         0.01    1292.9473    982.38474    1060.1753 
      11        0.011    1275.2937    982.38474     1646.742 
      12        0.012    1256.2178    982.38474    2278.9306 
      13        0.013    1235.7917    982.38474    2955.0547 
      14        0.014    1214.0932    982.38474    3674.9308 
      15        0.015    1191.2061    982.38474     4437.499 
      16        0.016    1167.2195    982.38474    5240.4447 
      17        0.017    1142.2281    982.38474    6081.6676 
      18        0.018    1116.3319    982.38474    6957.8661 
      19        0.019    1089.6358    982.38474    7865.6622 
      20         0.02     1062.249    982.38474    8801.7874 
      21        0.021    1034.2848    982.38474     9761.601 
      22        0.022    1005.8599    982.38474    10740.835 
      23        0.023    977.09367    982.38474    11736.326 
      24        0.024    948.10727    982.38474    12744.204 
      25        0.025    919.02244    982.38474    13757.438 
      26        0.026     889.9607    982.38474    14771.984 
      27        0.027    861.04385    982.38474    15785.968 
      28        0.028    832.39301    982.38474    16796.023 
      29        0.029    804.12678    982.38474    17796.981 
      30         0.03    776.36047    982.38474    18785.665 
      31        0.031    749.20546    982.38474    19758.634 
      32        0.032    722.76788    982.38474    20710.223 
      33        0.033     697.1476    982.38474    21637.013 
      34        0.034    672.43812    982.38474    22537.582 
      35        0.035    648.72578    982.38474    23407.812 
      36        0.036    626.08856    982.38474    24243.544 
      37        0.037    604.59582    982.38474    25043.248 
      38        0.038    584.30798    982.38474    25805.308 
      39        0.039    565.27623    982.38474    26528.408 
      40         0.04     547.5423    982.38474    27210.901 
      41        0.041    531.13797    982.38474    27850.569 
      42        0.042    516.08502    982.38474    28445.459 
      43        0.043    502.39546    982.38474    28994.935 
      44        0.044    490.07185    982.38474    29499.132 
      45        0.045    479.10736    982.38474    29955.779 
      46        0.046    469.48653    982.38474    30368.215 
      47        0.047    461.18597    982.38474    30736.146 
      48        0.048    454.17452    982.38474    31059.905 
      49        0.049    448.41384    982.38474    31339.798 
      50         0.05    443.85899    982.38474    31575.432 
      51        0.051    440.45933    982.38474    31769.719 
      52        0.052    438.15924    982.38474    31922.491 
      53        0.053    436.89894    982.38474    32036.327 
      54        0.054    436.61569    982.38474    32113.041 
      55        0.055    437.24433    982.38474    32154.016 
      56        0.056    438.71719    982.38474    32159.568 
      57        0.057     440.9651    982.38474    32134.619 
      58        0.058    443.91844    982.38474    32081.017 
      59        0.059    447.50764    982.38474    32001.397 
      60         0.06     451.6638    982.38474    31898.896 
      61        0.061    456.31936    982.38474    31775.004 
      62        0.062    461.40847    982.38474    31630.724 
      63        0.063    466.86713    982.38474    31468.522 
      64        0.064     472.6337    982.38474    31291.137 
      65        0.065    478.64968    982.38474    31099.911 
      66        0.066    484.85937    982.38474    30896.193 
      67        0.067    491.20974    982.38474    30683.706 
      68        0.068    497.65106    982.38474    30463.643 
      69        0.069    504.13709    982.38474    30238.357 
      70         0.07    510.62504    982.38474    30009.425 
      71        0.071    517.07555    982.38474    29778.609 
      72        0.072    523.45279    982.38474    29547.473 
      73        0.073    529.72433    982.38474    29318.063 
      74        0.074    535.86128    982.38474    29091.499 
      75        0.075    541.83795    982.38474     28868.32 
      76        0.076    547.63184    982.38474    28649.265 
      77        0.077    553.22316    982.38474    28432.994 
      78        0.078    558.59468    982.38474    28222.183 
      79        0.079    563.73238    982.38474    28019.115 
      80         0.08    568.62504    982.38474    27824.023 
      81        0.081    573.26384    982.38474    27636.792 
      82        0.082    577.64219    982.38474    27458.847 
      83        0.083    581.75553    982.38474      27290.8 
      84        0.084     585.6012    982.38474    27132.738 
      85        0.085    589.17829    982.38474    26984.176 
      86        0.086     592.4874    982.38474    26845.597 
      87        0.087    595.53063    982.38474     26717.95 
      88        0.088    598.31128    982.38474    26600.817 
      89        0.089    600.83357    982.38474    26492.795 
      90         0.09    603.10267    982.38474    26395.612 
      91        0.091    605.12465    982.38474    26308.369 
      92        0.092    606.90647    982.38474     26230.77 
      93        0.093     608.4559    982.38474    26163.073 
      94        0.094      609.781    982.38474    26105.049 
      95        0.095    610.89011    982.38474    26056.881 
      96        0.096    611.79196    982.38474    26018.316 
      97        0.097    612.49549    982.38474    25989.342 
      98        0.098    613.00994    982.38474    25968.514 
      99        0.099    613.34463    982.38474    25955.601 
     100          0.1    613.50885    982.38474    25951.396 
Loop time of 1.78843 on 1 procs for 90 steps with 64 atoms

Performance: 4.348 ns/day, 5.520 hours/ns, 50.323 timesteps/s
100.0% CPU use with 1 MPI tasks x no OpenMP threads

MPI task timing breakdown:
Section |  min time  |  avg time  |  max time  |%varavg| %total
---------------------------------------------------------------
Pair    | 1.7874     | 1.7874     | 1.7874     |   0.0 | 99.94
Neigh   | 0.00020349 | 0.00020349 | 0.00020349 |   0.0 |  0.01
Comm    | 0.00027736 | 0.00027736 | 0.00027736 |   0.0 |  0.02
Output  | 0.00029946 | 0.00029946 | 0.00029946 |   0.0 |  0.02
Modify  | 0.00014872 | 0.00014872 | 0.00014872 |   0.0 |  0.01
Other   |            | 6.782e-05  |            |       |  0.00

Nlocal:        64.0000 ave          64 max          64 min
Histogram: 1 0 0 0 0 0 0 0 0 0
Nghost:        886.000 ave         886 max         886 min
Histogram: 1 0 0 0 0 0 0 0 0 0
Neighs:         0.00000 ave           0 max           0 min
Histogram: 1 0 0 0 0 0 0 0 0 0
FullNghs:      5902.00 ave        5902 max        5902 min
Histogram: 1 0 0 0 0 0 0 0 0 0

Total # of neighbors = 5902
Ave neighs/atom = 92.218750
Neighbor list builds = 1
Dangerous builds = 0
Setting up Verlet run ...
  Unit style    : metal
  Current step  : 100
  Time step     : 0.001
Per MPI rank memory allocation (min/avg/max) = 3.089 | 3.089 | 3.089 Mbytes
Step Time Temp Volume Press 
     100          0.1    613.50885    982.38474    25951.396 
     110         0.11    607.76429    982.38474      26315.1 
     120         0.12    593.85757    982.38474    27135.008 
     130         0.13    576.31556    982.38474    28121.852 
     140         0.14    557.43271    982.38474    29108.153 
     150         0.15     541.4112    982.38474    30022.691 
     160         0.16    533.84154    982.38474    30731.344 
     170         0.17    535.81352    982.38474    31221.328 
     180         0.18    544.17748    982.38474    31459.057 
     190         0.19    559.14189    982.38474    31435.814 
     200          0.2    583.72981    982.38474    31052.007 
     210         0.21    614.75426    982.38474    30473.384 
     220         0.22    642.47838    982.38474    30032.017 
     230         0.23    661.50044    982.38474    29760.584 
     240         0.24    676.02239    982.38474    29580.234 
     250         0.25      693.184    982.38474    29358.157 
     260         0.26    713.22413    982.38474    29118.791 
     270         0.27    725.59063    982.38474     29214.47 
     280         0.28    717.36039    982.38474    29911.939 
     290         0.29    690.19113    982.38474    30971.856 
     300          0.3    671.20728    982.38474    31589.784 
     310         0.31    696.77703    982.38474    30732.387 
     320         0.32    769.76105    982.38474    28344.423 
     330         0.33    850.32017    982.38474    25521.007 
     340         0.34    894.28711    982.38474    23678.038 
     350         0.35    880.24572    982.38474    23667.685 
     360         0.36    817.46698    982.38474    25191.607 
     370         0.37    747.78727    982.38474    27055.113 
     380         0.38    716.21147    982.38474    27960.778 
     390         0.39    720.52092    982.38474    27873.016 
     400          0.4    719.78384    982.38474    27812.275 
     410         0.41    692.50321    982.38474     28401.55 
     420         0.42    657.85402    982.38474    29178.577 
     430         0.43     645.7975    982.38474    29219.475 
     440         0.44    658.94619    982.38474    28398.322 
     450         0.45    673.79873    982.38474    27385.146 
     460         0.46    673.29409    982.38474    26632.379 
     470         0.47    664.22226    982.38474    26032.587 
     480         0.48    663.30804    982.38474    25292.045 
     490         0.49    673.42212    982.38474    24395.605 
     500          0.5    681.92553    982.38474    23683.829 
     510         0.51    681.20153    982.38474     23302.83 
     520         0.52    678.95952    982.38474    22983.136 
     530         0.53    685.68495    982.38474    22525.884 
     540         0.54    698.85598    982.38474    21967.695 
     550         0.55     704.3514    982.38474    21673.434 
     560         0.56    690.54678    982.38474     22029.56 
     570         0.57    658.90483    982.38474    23101.756 
     580         0.58    623.48543    982.38474    24421.142 
     590         0.59    598.12807    982.38474    25620.908 
     600          0.6    581.43862    982.38474    26625.098 
     610         0.61     564.1537    982.38474    27527.459 
     620         0.62    551.66731    982.38474    28176.907 
     630         0.63    559.54883    982.38474    28229.311 
     640         0.64    591.49731    982.38474     27569.53 
     650         0.65    638.71909    982.38474     26483.41 
     660         0.66    687.61377    982.38474    25508.274 
     670         0.67    721.89224    982.38474    25198.869 
     680         0.68    729.06558    982.38474    26025.801 
     690         0.69    711.62548    982.38474    27774.255 
     700          0.7    689.98814    982.38474    29680.011 
     710         0.71     690.9563    982.38474    30832.656 
     720         0.72    728.32384    982.38474    30728.742 
     730         0.73    792.16222    982.38474    29570.144 
     740         0.74    855.63858    982.38474    28195.329 
     750         0.75    891.04332    982.38474    27500.974 
     760         0.76    881.99918    982.38474    28090.427 
     770         0.77    831.30137    982.38474    29893.715 
     780         0.78    764.44666    982.38474    32137.874 
     790         0.79    715.55327    982.38474    33795.829 
     800          0.8    698.04435    982.38474    34384.466 
     810         0.81    703.22242    982.38474      34092.1 
     820         0.82    725.60854    982.38474    33108.456 
     830         0.83    763.50446    982.38474    31589.245 
     840         0.84    798.58668    982.38474    30194.676 
     850         0.85    805.79881    982.38474    29555.023 
     860         0.86     787.0785    982.38474    29756.758 
     870         0.87     765.3359    982.38474    30230.064 
     880         0.88    747.85068    982.38474    30703.956 
     890         0.89     722.9427    982.38474    31318.429 
     900          0.9    687.00697    982.38474    32139.904 
     910         0.91    655.15434    982.38474    32768.791 
     920         0.92    639.59083    982.38474    32871.048 
     930         0.93    633.49795    982.38474    32735.771 
     940         0.94    624.87742    982.38474    32737.305 
     950         0.95    610.49306    982.38474    32994.365 
     960         0.96    593.52893    982.38474    33499.418 
     970         0.97     581.3219    982.38474    33897.306 
     980         0.98    583.44518    982.38474    33846.835 
     990         0.99    602.72471    982.38474     33220.09 
    1000            1    632.98711    982.38474    32112.849 
Loop time of 18.26 on 1 procs for 900 steps with 64 atoms

Performance: 4.258 ns/day, 5.636 hours/ns, 49.288 timesteps/s
100.0% CPU use with 1 MPI tasks x no OpenMP threads

MPI task timing breakdown:
Section |  min time  |  avg time  |  max time  |%varavg| %total
---------------------------------------------------------------
Pair    | 18.251     | 18.251     | 18.251     |   0.0 | 99.95
Neigh   | 0.0029998  | 0.0029998  | 0.0029998  |   0.0 |  0.02
Comm    | 0.0028821  | 0.0028821  | 0.0028821  |   0.0 |  0.02
Output  | 0.00037925 | 0.00037925 | 0.00037925 |   0.0 |  0.00
Modify  | 0.0015279  | 0.0015279  | 0.0015279  |   0.0 |  0.01
Other   |            | 0.0006743  |            |       |  0.00

Nlocal:        64.0000 ave          64 max          64 min
Histogram: 1 0 0 0 0 0 0 0 0 0
Nghost:        886.000 ave         886 max         886 min
Histogram: 1 0 0 0 0 0 0 0 0 0
Neighs:         0.00000 ave           0 max           0 min
Histogram: 1 0 0 0 0 0 0 0 0 0
FullNghs:      5926.00 ave        5926 max        5926 min
Histogram: 1 0 0 0 0 0 0 0 0 0

Total # of neighbors = 5926
Ave neighs/atom = 92.593750
Neighbor list builds = 15
Dangerous builds = 0
Setting up Verlet run ...
  Unit style    : metal
  Current step  : 1000
  Time step     : 0.001
Per MPI rank memory allocation (min/avg/max) = 3.089 | 3.089 | 3.089 Mbytes
Step Time Temp Volume Press 
    1000            1    632.98711    982.38474    32112.849 
    1100          1.1    804.33173    982.38474    25269.993 
    1200          1.2    634.71452    982.38474    24283.061 
    1300          1.3    562.12414    982.38474    23453.904 
    1400          1.4    701.89247    982.38474    24082.549 
    1500          1.5    682.56355    982.38474    27179.487 
    1600          1.6    808.43467    982.38474    27033.372 
    1700          1.7     749.5357    982.38474    27092.546 
    1800          1.8    568.46262    982.38474    27041.816 
    1900          1.9    678.98611    982.38474    18968.466 
    2000            2    612.26798    982.38474    23454.949 
    2100          2.1     647.3689    982.38474    34252.977 
    2200          2.2    913.10037    982.38474    26652.485 
    2300          2.3    679.00485    982.38474    30133.829 
    2400          2.4    687.97903    982.38474    23625.849 
    2500          2.5    626.69463    982.38474     24056.35 
    2600          2.6    620.32173    982.38474    29055.907 
    2700          2.7     770.8962    982.38474    26632.188 
    2800          2.8    636.28996    982.38474    29851.018 
    2900          2.9    687.84488    982.38474    28660.842 
    3000            3    715.28604    982.38474    27107.267 
    3100          3.1    663.20383    982.38474    22624.964 
    3200          3.2    571.91082    982.38474     21233.71 
    3300          3.3    619.41293    982.38474    24410.436 
    3400          3.4     676.5405    982.38474    27062.634 
    3500          3.5    728.59396    982.38474     24450.45 
    3600          3.6    596.15896    982.38474     27404.26 
    3700          3.7     634.7658    982.38474     26962.75 
    3800          3.8    751.10975    982.38474    29539.457 
    3900          3.9    717.67984    982.38474    32721.169 
    4000            4    771.69038    982.38474    26558.269 
    4100          4.1    615.21493    982.38474    27488.528 
    4200          4.2    751.87882    982.38474    22301.136 
    4300          4.3    650.55181    982.38474    27612.538 
    4400          4.4    726.63087    982.38474    29764.815 
    4500          4.5    708.88748    982.38474    35178.585 
    4600          4.6    709.79135    982.38474    33225.658 
    4700          4.7    591.10917    982.38474    29060.021 
    4800          4.8    684.55836    982.38474    22503.136 
    4900          4.9    655.19919    982.38474    23468.929 
    5000            5    733.05051    982.38474    22970.172 
    5100          5.1    746.82343    982.38474    30133.511 
    5200          5.2    815.60058    982.38474    30440.919 
    5300          5.3    642.74792    982.38474    29059.408 
    5400          5.4     711.4174    982.38474    24904.031 
    5500          5.5    753.03961    982.38474     22958.14 
    5600          5.6    685.37311    982.38474    26401.072 
    5700          5.7    889.86687    982.38474    29841.356 
    5800          5.8    752.47128    982.38474    30906.143 
    5900          5.9    779.24355    982.38474    26270.774 
    6000            6    673.46828    982.38474    30281.308 
    6100          6.1    723.73292    982.38474    28797.555 
    6200          6.2     654.2474    982.38474    26119.966 
    6300          6.3    582.54101    982.38474    23301.368 
    6400          6.4    629.42321    982.38474    24733.992 
    6500          6.5    722.76313    982.38474    27766.411 
    6600          6.6    846.33174    982.38474    23072.773 
    6700          6.7    631.08699    982.38474    27735.032 
    6800          6.8    688.97469    982.38474    26445.757 
    6900          6.9    829.32805    982.38474    26548.007 
    7000            7    663.33487    982.38474    33844.663 
    7100          7.1    728.05453    982.38474    27872.917 
    7200          7.2     647.6744    982.38474    27715.614 
    7300          7.3    632.60726    982.38474    26222.327 
    7400          7.4    703.71529    982.38474     21472.52 
    7500          7.5    655.30224    982.38474    21711.953 
    7600          7.6    708.76932    982.38474    26554.424 
    7700          7.7    773.99314    982.38474    30755.457 
    7800          7.8    805.14588    982.38474    27098.693 
    7900          7.9    654.29104    982.38474    27526.171 
    8000            8    710.73677    982.38474     26274.91 
    8100          8.1    791.93334    982.38474    24090.355 
    8200          8.2    716.87325    982.38474    29464.767 
    8300          8.3    782.34122    982.38474    34169.001 
    8400          8.4    838.22685    982.38474    33255.491 
    8500          8.5    736.28456    982.38474     25205.09 
    8600          8.6    766.72899    982.38474    21661.672 
    8700          8.7    551.02747    982.38474    26846.918 
    8800          8.8     682.2074    982.38474     24534.14 
    8900          8.9    697.50944    982.38474    32641.728 
    9000            9    742.74153    982.38474    32014.898 
    9100          9.1    754.27195    982.38474    27695.989 
    9200          9.2    670.47868    982.38474    27455.643 
    9300          9.3     566.7228    982.38474    30429.624 
    9400          9.4    758.93977    982.38474    24450.838 
    9500          9.5    638.69903    982.38474    29215.987 
    9600          9.6    761.96733    982.38474    24855.507 
    9700          9.7     803.8085    982.38474    28668.504 
    9800          9.8    721.61807    982.38474    33317.033 
    9900          9.9      766.364    982.38474    30098.713 
   10000           10    570.94357    982.38474    31228.039 
Loop time of 185.678 on 1 procs for 9000 steps with 64 atoms

Performance: 4.188 ns/day, 5.731 hours/ns, 48.471 timesteps/s
100.0% CPU use with 1 MPI tasks x no OpenMP threads

MPI task timing breakdown:
Section |  min time  |  avg time  |  max time  |%varavg| %total
---------------------------------------------------------------
Pair    | 185.59     | 185.59     | 185.59     |   0.0 | 99.95
Neigh   | 0.032648   | 0.032648   | 0.032648   |   0.0 |  0.02
Comm    | 0.029166   | 0.029166   | 0.029166   |   0.0 |  0.02
Output  | 0.00050415 | 0.00050415 | 0.00050415 |   0.0 |  0.00
Modify  | 0.015268   | 0.015268   | 0.015268   |   0.0 |  0.01
Other   |            | 0.006448   |            |       |  0.00

Nlocal:        64.0000 ave          64 max          64 min
Histogram: 1 0 0 0 0 0 0 0 0 0
Nghost:        886.000 ave         886 max         886 min
Histogram: 1 0 0 0 0 0 0 0 0 0
Neighs:         0.00000 ave           0 max           0 min
Histogram: 1 0 0 0 0 0 0 0 0 0
FullNghs:      5920.00 ave        5920 max        5920 min
Histogram: 1 0 0 0 0 0 0 0 0 0

Total # of neighbors = 5920
Ave neighs/atom = 92.500000
Neighbor list builds = 163
Dangerous builds = 0
System init for write_data ...
Total wall time: 0:03:26
