LAMMPS data file via write_data, version 29 Sep 2021, timestep = 10000

64 atoms
1 atom types

0 10.640000000001363 xlo xhi
0 9.214510296267605 ylo yhi
0 10.02 zlo zhi
0 0 0 xy xz yz

Masses

1 65.38

Atoms # atomic

1 1 1.6209922088800404 5.502217273618469 3.934620204891346 0 0 0
2 1 0.8590999213764445 5.52773429951343 8.88814838759228 0 0 0
3 1 0.13888948798177506 7.726920747396872 3.783468222560633 0 0 0
4 1 0.17251732085666693 7.813870495139124 8.584847260742922 0 0 0
5 1 6.715352108473164 0.9964737077563272 4.37233445874937 0 0 0
6 1 6.523269329862925 0.5787413825333011 8.585701551231706 0 0 0
7 1 5.3645962473563715 3.207853422335723 3.771620021951858 0 0 0
8 1 5.03545499439458 2.820115374908081 9.163072985053438 0 0 0
9 1 1.1728665740445703 0.9068657128468701 3.4984579013234356 0 0 0
10 1 1.157422347364825 0.7522478324567378 8.246695828926219 0 0 0
11 1 0.025211135850652287 3.1639341456255123 3.5424696751729368 0 0 0
12 1 10.275600685940894 3.246602226499827 8.430384836924118 -1 0 0
13 1 4.184366695904856 1.045705439272914 3.428139880047258 0 0 0
14 1 3.8427678823535074 0.8629316779222054 8.88035233392441 0 0 0
15 1 2.8212028572537333 2.911168250870762 4.030450585145689 0 0 0
16 1 2.2621940459122203 2.935384286107537 8.712965881014727 0 0 0
17 1 6.575355216460848 5.564236002109897 3.3175293058387356 0 0 0
18 1 6.351718279792959 4.948164516822351 8.512606174120569 0 0 0
19 1 5.4823156056930795 7.543741055773877 4.122457357235351 0 0 0
20 1 5.227710346851211 7.348493863728464 8.942229108433606 0 0 0
21 1 9.63050271526141 5.550071533331296 3.941103769554745 0 0 0
22 1 9.06801302340861 5.399157717374013 8.928742253766877 0 0 0
23 1 8.10629322052517 7.821239097702096 3.60900069973182 0 0 0
24 1 7.8970969931903925 7.33368263373288 8.364042714304697 0 0 0
25 1 4.091069681061505 5.358387622024265 3.350749706283616 0 0 0
26 1 3.8328969362175376 5.1235524103445815 8.688849489506705 0 0 0
27 1 2.7481546991324137 7.712925592523551 4.163457103696829 0 0 0
28 1 2.805599704658783 7.73238952010493 8.739192774579326 0 0 0
29 1 9.277278277977173 0.7542834248023769 3.8115229347875657 0 0 0
30 1 9.123188916268187 0.7671987875057211 8.96395110051723 0 0 0
31 1 8.216896524585175 3.236270965199425 4.051927029340677 0 0 0
32 1 7.642269124691658 2.9367887461911417 8.925782257982627 0 0 0
33 1 5.416992210857436 1.486467660119951 1.3439232226200866 0 0 0
34 1 5.442621571153783 1.6203285974476824 6.581872205817333 0 0 0
35 1 4.044055502364065 3.6082014491117187 1.4673336789290785 0 0 0
36 1 3.7778036378736117 3.6495038326943856 6.725400971139039 0 0 0
37 1 2.80898944049976 5.8507017219080355 0.9973480534831722 0 0 0
38 1 2.5610756194674162 5.922243120010183 6.668636032924016 0 0 0
39 1 1.4207126558998218 8.043676844952785 0.9791811161023811 0 0 0
40 1 1.2262022450513532 8.508895807034305 5.919016669721423 0 0 0
41 1 10.614988917017243 1.8128123717664852 0.647627105070312 -1 0 0
42 1 10.468263772784539 1.6754202962261568 5.867004786960174 -1 0 0
43 1 2.651772492364283 1.2793606264621686 1.2614394102493505 0 0 0
44 1 2.5668463639487187 1.388566302818514 6.140025035788065 0 0 0
45 1 1.4017651137713183 3.6794561966796766 1.5475247642625396 0 0 0
46 1 1.3823205203972377 3.7935418131739707 5.929027555753664 0 0 0
47 1 10.475751029371883 6.201500365397123 1.2091538116037346 -1 0 0
48 1 0.07980207614627714 6.291037881193224 6.3002103049819045 0 0 0
49 1 9.484504386264392 3.8943895374703628 1.3293014123147817 0 0 0
50 1 9.412508753928444 4.090196665358426 6.242580765019974 0 0 0
51 1 7.875698994081351 6.282886607397978 1.2311308369984675 0 0 0
52 1 8.225371633318852 6.225948392142998 6.041255422884873 0 0 0
53 1 6.7350591249786556 8.441003061348635 0.7606450150577069 0 0 0
54 1 6.65543398554218 8.523765499481573 6.525373107547903 0 0 0
55 1 9.66932657173978 8.560957160541165 1.5305527905869865 0 0 0
56 1 9.311379378738167 8.687192322124245 6.545322228880086 0 0 0
57 1 8.159432566036354 1.485124999257572 1.5570841057715397 0 0 0
58 1 8.023596160774881 1.9071275981071516 6.278626771601267 0 0 0
59 1 6.767204702338675 3.8950454325214325 1.3605939936790552 0 0 0
60 1 6.5822370444900935 3.9437312911476146 6.048563641763844 0 0 0
61 1 5.307289067272271 6.152352189963406 1.1073579131741331 0 0 0
62 1 5.425817422147078 6.114024406307308 6.542378562824112 0 0 0
63 1 4.206506750752992 8.327933218825622 1.6931779878030737 0 0 0
64 1 4.050507179092511 8.391586447497625 5.974456923752546 0 0 0

Velocities

1 1.1298471152914322 -1.4780778941627999 -5.759721888708209
2 -1.1780156942336228 0.16734675934965057 -1.1514710311563356
3 -0.3614879362253729 1.9354303599158644 -2.298851091673703
4 -2.7927862234860696 -3.629031137742481 0.256203689942642
5 1.1164740017907215 3.7966972193786077 -4.123484192058877
6 -4.3259296466485555 3.7765773148589705 -2.6912814914132035
7 3.132384903057568 -3.0887867372126863 3.864824036785556
8 -3.1287827077910686 -3.8897921917378984 0.5830291608497599
9 5.533875195664046 -2.184529140836278 -0.6629143822957462
10 -1.016990308457832 3.4762040322540644 0.7727683502477461
11 0.7716728669842059 -0.7860018805903733 -1.004213428875921
12 6.3019914537902695 3.907655476156734 3.7236001911383747
13 -0.635316275654029 -0.687965068061199 -1.974544511838709
14 1.1393597980298766 -2.30885747047253 0.32509854323752846
15 -3.976541808177828 0.7662351251969632 4.339353216467747
16 0.04118560222028962 2.490026479339492 -1.3851730328263985
17 6.844423081766269 -2.880854827433902 -4.512036633607806
18 1.9438721580085268 2.1078427026696267 -0.7644749451562695
19 1.793155934282728 -0.4918797913945947 0.6609755478371309
20 1.249262605402367 -0.6512496246937437 -0.6853874045205212
21 1.6486781361298017 0.2597162665713569 4.248895029567486
22 0.7422104549526761 1.554432798183823 -3.5708271255364297
23 3.5346502882545296 0.3764018916349275 0.3623296459236732
24 -3.798841093954971 -0.9850080866958889 -3.033886284648345
25 -0.5825064064321079 0.7879229277757602 1.8862019421923952
26 -0.5860717844297693 -2.1640517723639006 2.713346621494429
27 -3.3183918343936663 3.399334352239422 0.4581951132944865
28 1.5357337939883187 1.260530895812692 5.796394106007904
29 -0.20671967393026125 -0.8663370772406855 0.745019195121626
30 -0.7393740759269218 -0.4503132125161993 2.207166532902594
31 -4.144465100591145 -0.992990167852045 -1.8063387335459853
32 2.7785699332267284 -2.9240271220964864 -1.0812072229904874
33 1.5610106439390872 2.4419107751245943 -0.5151529887778727
34 -3.3053936987528347 -5.05381012326957 3.072648535727371
35 -1.1467345111035614 -2.870697968029619 -5.317908777395473
36 3.2862632176262183 -0.2096991329290448 -0.6203834974542978
37 0.9451531098938241 0.33020102438734655 1.2427321856483478
38 -7.922151981638439 1.6563265588468723 4.181587944627596
39 2.152491345056725 0.341239857688378 4.477882345787775
40 1.5454117661180566 0.9460727432694099 0.7804384718075317
41 2.230530117565095 -3.7199611371720245 -0.14624866011161633
42 3.0749693575532393 -0.11422974640796706 -0.057157501638900335
43 -2.3050158711250344 -0.7409976105543766 -2.4090603102798784
44 -2.1723609456167416 -1.8083045407013723 0.6733858273266298
45 2.2695323184059926 -0.8032495004067924 -1.829289784488947
46 -1.02448930290755 1.4234515041332976 1.4261179671727335
47 -4.412486167308504 4.031232629024791 1.0444590832239837
48 0.5383359612245874 -0.3172099979806016 2.74757926069744
49 -3.037750749236997 1.5808332029598295 -1.2083094423847642
50 -0.9728549671532821 -1.8826806425204534 3.0922564506030583
51 -0.6678498118822553 -0.9319397090156781 -4.002597993894825
52 -1.2908404783057388 1.4104266014427835 2.827081186564259
53 -1.0460418527367406 -0.9245217451286201 -0.9641956342333406
54 -0.5092310059260121 1.1062280943875622 -1.2936401378402325
55 0.8709844786895876 -2.6858623374466246 0.9105219715139183
56 2.7230482785259835 5.419125812468713 -0.47134532030876947
57 -3.58771426581972 -4.843792592467229 -5.076660755473043
58 -3.875071922415976 0.48022657370567057 -0.47504619516381114
59 0.6949103518142501 3.5939725928946475 2.655560720140725
60 5.20746963486642 2.5414854357346757 2.6448061523539708
61 1.607304667979767 0.23057177713010835 0.2587347675594155
62 -0.488531081815578 -4.963385000247246 -7.7025074039613965
63 -2.934431716827523 3.3653457512816645 -1.1539069780524587
64 1.546408328806975 1.3690894515621785 4.770030988546896
