ITEM: TIMESTEP
10000
ITEM: NUMBER OF ATOMS
64
ITEM: BOX BOUNDS xy xz yz pp pp pp
0.0000000000000000e+00 1.0640000000001363e+01 0.0000000000000000e+00
0.0000000000000000e+00 9.2145102962676049e+00 0.0000000000000000e+00
0.0000000000000000e+00 1.0020000000000000e+01 0.0000000000000000e+00
ITEM: ATOMS id type x y z
1 1 1.62099 5.50222 3.93462
2 1 0.8591 5.52773 8.88815
3 1 0.138889 7.72692 3.78347
4 1 0.172517 7.81387 8.58485
5 1 6.71535 0.996474 4.37233
6 1 6.52327 0.578741 8.5857
7 1 5.3646 3.20785 3.77162
8 1 5.03545 2.82012 9.16307
9 1 1.17287 0.906866 3.49846
10 1 1.15742 0.752248 8.2467
11 1 0.0252111 3.16393 3.54247
12 1 10.2756 3.2466 8.43038
13 1 4.18437 1.04571 3.42814
14 1 3.84277 0.862932 8.88035
15 1 2.8212 2.91117 4.03045
16 1 2.26219 2.93538 8.71297
17 1 6.57536 5.56424 3.31753
18 1 6.35172 4.94816 8.51261
19 1 5.48232 7.54374 4.12246
20 1 5.22771 7.34849 8.94223
21 1 9.6305 5.55007 3.9411
22 1 9.06801 5.39916 8.92874
23 1 8.10629 7.82124 3.609
24 1 7.8971 7.33368 8.36404
25 1 4.09107 5.35839 3.35075
26 1 3.8329 5.12355 8.68885
27 1 2.74815 7.71293 4.16346
28 1 2.8056 7.73239 8.73919
29 1 9.27728 0.754283 3.81152
30 1 9.12319 0.767199 8.96395
31 1 8.2169 3.23627 4.05193
32 1 7.64227 2.93679 8.92578
33 1 5.41699 1.48647 1.34392
34 1 5.44262 1.62033 6.58187
35 1 4.04406 3.6082 1.46733
36 1 3.7778 3.6495 6.7254
37 1 2.80899 5.8507 0.997348
38 1 2.56108 5.92224 6.66864
39 1 1.42071 8.04368 0.979181
40 1 1.2262 8.5089 5.91902
41 1 -0.0250111 1.81281 0.647627
42 1 10.4683 1.67542 5.867
43 1 2.65177 1.27936 1.26144
44 1 2.56685 1.38857 6.14003
45 1 1.40177 3.67946 1.54752
46 1 1.38232 3.79354 5.92903
47 1 -0.164249 6.2015 1.20915
48 1 0.0798021 6.29104 6.30021
49 1 9.4845 3.89439 1.3293
50 1 9.41251 4.0902 6.24258
51 1 7.8757 6.28289 1.23113
52 1 8.22537 6.22595 6.04126
53 1 6.73506 8.441 0.760645
54 1 6.65543 8.52377 6.52537
55 1 9.66933 8.56096 1.53055
56 1 9.31138 8.68719 6.54532
57 1 8.15943 1.48512 1.55708
58 1 8.0236 1.90713 6.27863
59 1 6.7672 3.89505 1.36059
60 1 6.58224 3.94373 6.04856
61 1 5.30729 6.15235 1.10736
62 1 5.42582 6.11402 6.54238
63 1 4.20651 8.32793 1.69318
64 1 4.05051 8.39159 5.97446
