LAMMPS data file via write_data, version 29 Sep 2021, timestep = 10000

64 atoms
1 atom types

0 10.479999999999203 xlo xhi
0 9.075946231660229 ylo yhi
0 10.46 zlo zhi
0 0 0 xy xz yz

Masses

1 65.38

Atoms # atomic

1 1 1.4303362301306324 5.413039385448415 4.132489429032731 0 0 0
2 1 0.7957512199151123 5.098179924967337 9.759293701859258 0 0 0
3 1 0.3554832052884481 7.799330335555285 4.104412811979379 0 0 0
4 1 10.152962724947622 7.1851062213941015 9.378239886188958 -1 0 0
5 1 6.850436615780848 0.9930625973606211 3.6419802722577157 0 0 0
6 1 6.362016578975587 0.6525211913514639 9.483665474760148 0 0 0
7 1 5.452388617757519 3.1665629841832366 3.6059714313931246 0 0 0
8 1 4.950980588854479 2.799913735174077 9.589528631401421 0 0 0
9 1 1.8969340098073544 1.1356499935521234 3.18163157888559 0 0 0
10 1 1.110296890360922 0.7678426325833322 9.124299910267073 0 0 0
11 1 0.09115255037655198 3.360629351574414 3.7119499194584455 0 0 0
12 1 10.429018473407456 3.115438331399626 8.866351905467349 -1 0 0
13 1 4.550404726221565 0.864014207114569 4.052558097874898 0 0 0
14 1 3.7735809778172307 0.34539212181282924 8.582899591460482 0 0 0
15 1 2.860031013554663 3.1370004647519245 4.275240765854414 0 0 0
16 1 2.4370663066284526 2.908045359401241 9.248216740228553 0 0 0
17 1 6.757883177203523 5.3247561866628805 4.124506161284532 0 0 0
18 1 6.176111822924156 5.31376442332876 8.792953946411707 0 0 0
19 1 5.665280581650517 7.704770233514157 4.256209672285956 0 0 0
20 1 4.6286394223870575 7.242192007723027 8.892601438845476 0 0 0
21 1 9.231331217166273 5.711571680400069 4.120932775961344 0 0 0
22 1 8.65827548023669 5.139461100708798 8.652776456831461 0 0 0
23 1 8.180237660777138 7.792884384987934 4.036747416802544 0 0 0
24 1 7.713005697366161 7.4725204743847815 9.479685369673113 0 0 0
25 1 4.193751240224821 5.440364627709131 4.217335790182583 0 0 0
26 1 3.455330075534892 5.1661621629514665 8.960978607021342 0 0 0
27 1 2.856595108850329 7.563484943092366 3.794827509857593 0 0 0
28 1 2.168296388644723 7.254295504277196 9.042265468163427 0 0 0
29 1 9.31524336381955 1.041793302603716 3.8805374323992967 0 0 0
30 1 9.110627250218814 0.6605059011207641 9.236175418533668 0 0 0
31 1 7.8895845257567006 3.2407230021759794 3.9497750401771263 0 0 0
32 1 7.774117567669 2.6177048155174436 9.284696537652039 0 0 0
33 1 5.015906515032984 1.358245644849405 1.4254776978957509 0 0 0
34 1 5.141028325711475 1.6764209948842592 6.9593849027423484 0 0 0
35 1 4.029064357728444 3.734715442134159 1.4659764953110817 0 0 0
36 1 4.12548740044765 3.9156769821266173 6.8431433699717195 0 0 0
37 1 2.7677655416440183 6.140213333770536 1.813113567670177 0 0 0
38 1 2.6283579864277695 5.952705289260157 6.678405537963598 0 0 0
39 1 1.1877977599190137 8.391728244442504 1.269364690392118 0 0 0
40 1 1.5417537068741711 8.169067879628653 6.824055385629907 0 0 0
41 1 10.337371571964601 1.603147011085564 1.0643477713691316 -1 0 0
42 1 0.14093198587170377 1.226764485633264 5.9959254968833 0 0 0
43 1 2.5899504376750504 1.704199999389182 0.7639764035287113 0 0 0
44 1 2.626868704443643 1.507306505191552 6.291009230899445 0 0 0
45 1 1.4474565369021077 3.885255272099282 1.6242097802319493 0 0 0
46 1 1.3335769019423551 3.66437859006848 6.413521506588087 0 0 0
47 1 0.10642823053748632 6.129016799385035 1.6267575126005072 0 0 0
48 1 10.469976580208527 5.835827097503526 6.608367163186114 -1 0 0
49 1 9.2392639206961 3.8713876233579545 1.1680864951941692 0 0 0
50 1 9.203940400753382 3.770819185916433 6.1787389218869775 0 0 0
51 1 8.011447106388196 6.047891873349013 1.626209588062204 0 0 0
52 1 8.01312750301354 6.1013398834617645 6.323588269154633 0 0 0
53 1 6.402766013625147 8.171296968484585 1.3255594811074651 0 0 0
54 1 6.365872733666196 8.420858363969288 6.8872031289878795 0 0 0
55 1 9.04905085686386 8.573013328233488 1.66757049511462 0 0 0
56 1 9.259309792239753 8.328555685481916 7.14876802174066 0 0 0
57 1 7.735868314946755 1.494478827279348 1.102000786664799 0 0 0
58 1 8.042630756178399 1.5753396375523636 6.676382040125537 0 0 0
59 1 6.478063964018377 3.6477823273795384 1.0410206734279206 0 0 0
60 1 6.518296602557826 3.7129656883301227 6.357784498134175 0 0 0
61 1 5.088384987543173 5.97932481893266 0.5714416225707347 0 0 0
62 1 5.3731190294923765 5.9916987110299536 6.423335490911096 0 0 0
63 1 3.7264084463727256 8.269369014710248 0.9745677611725053 0 0 0
64 1 4.089575718037596 8.15080431542376 6.11897102243298 0 0 0

Velocities

1 0.6529631643580313 7.448512476358055 -4.2521445451665
2 -0.6152009822833739 2.745871611834404 -1.2144263252980876
3 2.967161773878067 2.7756146195727895 -0.8326860922940122
4 -3.6991510001623222 -3.4763867856511257 2.15482675683183
5 0.02806182603866571 -1.4600379180019851 2.860291485598281
6 -1.4093957643674333 0.6714123673616367 1.256581517920659
7 1.04285426595094 2.166016558790195 0.1832260152716872
8 -4.368772710742788 -4.656383796884349 -3.378930397201371
9 3.9057680921359164 0.1967958225283645 0.6762571682023382
10 3.8586866502222232 -2.10895068960826 0.9807798989394777
11 3.466866553498214 -0.009261296906318757 2.1792377176879354
12 -2.278281710991844 3.4246709013145193 4.317574806346607
13 -0.9528636842089414 -5.792486992724225 -2.066291124132447
14 0.42205537718625863 2.7867628336320447 -0.7216699421723883
15 1.557641959266963 3.247233437877339 4.107312230599962
16 0.4722021228608416 -1.0263236027812395 -2.0423434106201985
17 1.117666527910038 -2.9011930406240616 -0.6348699861072873
18 3.198049652015989 -0.2723965505801079 2.5719684185716463
19 -0.2771190569742409 3.393964631656443 1.7269698987766058
20 -0.71870093837887 -0.31278681585682144 -4.886354433183255
21 6.55715250237775 -1.281707824960486 1.760455111629546
22 -0.05577322016281533 2.842859851541417 -2.320227431354917
23 -0.0020384806586032336 3.019750733982744 -8.503936806524552
24 -0.38198406369450266 -3.593902326038056 -1.8498568822432357
25 0.7222976587092309 -1.2236350944297418 3.450688838893463
26 -1.1001600390645183 -6.333355151373556 8.630438038696566
27 3.4151909629339845 -4.528035502597215 -0.3038946561902359
28 -6.790272299641395 -0.7951209479825067 -4.038570571393447
29 1.8258229576802745 2.3691574355901293 -0.8689444489518245
30 2.703851729874877 -0.9708920405570285 -2.638283356482722
31 -2.354769927458374 -4.391393677060498 1.2762227379216189
32 3.210841547272221 -0.7982290958807324 -2.6698368129747174
33 2.717951157028238 -2.8747319776959523 -0.15066943447201725
34 0.6053876558888378 2.3444839548280343 -3.4862397151195514
35 0.08332144300100063 -0.22461151767465398 -5.46815679774166
36 3.575659470484466 0.6772531745180557 4.560012303880342
37 -0.3883922080104799 3.150955979042405 1.9930819272513485
38 3.6225957752365168 2.5716035284438776 -0.9184377435777887
39 2.7353426344471945 -1.8697373883033008 4.504278268616771
40 -0.9609831538758465 2.285491910877483 -1.3441191548620732
41 -0.25481876224963945 3.345961842838482 -3.2402285767079246
42 -6.776496647951589 -2.227741252763183 2.924850460387983
43 -8.625805262229036 -4.381017180043464 3.175314263301359
44 2.44151017506657 4.124255639139893 5.425562900450168
45 -2.4303219017600495 1.5377057813106902 -2.0392003891905337
46 6.16361951487576 2.4355188602137687 -1.020454957225179
47 1.2694901338823763 -3.549651740635773 0.21379080200961467
48 -4.123784331569852 2.881228320623277 -3.340291443261719
49 2.4372101334566993 3.5859247798910827 -2.4657386632394593
50 3.1708126952887596 0.9265776520279118 4.292149807311113
51 -3.56497009584116 0.11665304642880833 -1.589432092810271
52 -5.8666149138727794 -0.6888163599134861 -2.818465412697898
53 -0.3553165417620238 -5.773537188367723 3.495280433615183
54 -2.5907952824072886 -2.0648773775282265 -2.3950430012012247
55 -0.8985196817404327 1.6190275673859222 1.0771262832150694
56 -0.0045987716878576786 1.1666568754360882 -5.255023633647511
57 -1.856559777397828 -1.2935926273567029 6.599234916233736
58 -1.8669011999104472 0.21151151941177326 -2.597996190342
59 1.434011997655179 -3.562734139114294 -0.2175808191385602
60 -0.24821972865646194 2.74046760562453 4.781295312110031
61 -4.469523881391586 -0.6892976083585319 -3.2827818634804915
62 -2.2542829253867973 -6.268477428945616 2.645990033954232
63 0.35277889103465127 5.180197232077793 -0.2583371751928316
64 0.8065619449744992 3.4112043850394262 1.290665931974932
