ITEM: TIMESTEP
10000
ITEM: NUMBER OF ATOMS
64
ITEM: BOX BOUNDS xy xz yz pp pp pp
0.0000000000000000e+00 1.0479999999999203e+01 0.0000000000000000e+00
0.0000000000000000e+00 9.0759462316602288e+00 0.0000000000000000e+00
0.0000000000000000e+00 1.0460000000000001e+01 0.0000000000000000e+00
ITEM: ATOMS id type x y z
1 1 1.43034 5.41304 4.13249
2 1 0.795751 5.09818 9.75929
3 1 0.355483 7.79933 4.10441
4 1 10.153 7.18511 9.37824
5 1 6.85044 0.993063 3.64198
6 1 6.36202 0.652521 9.48367
7 1 5.45239 3.16656 3.60597
8 1 4.95098 2.79991 9.58953
9 1 1.89693 1.13565 3.18163
10 1 1.1103 0.767843 9.1243
11 1 10.5712 3.36063 3.71195
12 1 10.429 3.11544 8.86635
13 1 4.5504 0.864014 4.05256
14 1 3.77358 0.345392 8.5829
15 1 2.86003 3.137 4.27524
16 1 2.43707 2.90805 9.24822
17 1 6.75788 5.32476 4.12451
18 1 6.17611 5.31376 8.79295
19 1 5.66528 7.70477 4.25621
20 1 4.62864 7.24219 8.8926
21 1 9.23133 5.71157 4.12093
22 1 8.65828 5.13946 8.65278
23 1 8.18024 7.79288 4.03675
24 1 7.71301 7.47252 9.47969
25 1 4.19375 5.44036 4.21734
26 1 3.45533 5.16616 8.96098
27 1 2.8566 7.56348 3.79483
28 1 2.1683 7.2543 9.04227
29 1 9.31524 1.04179 3.88054
30 1 9.11063 0.660506 9.23618
31 1 7.88958 3.24072 3.94978
32 1 7.77412 2.6177 9.2847
33 1 5.01591 1.35825 1.42548
34 1 5.14103 1.67642 6.95938
35 1 4.02906 3.73472 1.46598
36 1 4.12549 3.91568 6.84314
37 1 2.76777 6.14021 1.81311
38 1 2.62836 5.95271 6.67841
39 1 1.1878 8.39173 1.26936
40 1 1.54175 8.16907 6.82406
41 1 10.3374 1.60315 1.06435
42 1 0.140932 1.22676 5.99593
43 1 2.58995 1.7042 0.763976
44 1 2.62687 1.50731 6.29101
45 1 1.44746 3.88526 1.62421
46 1 1.33358 3.66438 6.41352
47 1 0.106428 6.12902 1.62676
48 1 -0.0100234 5.83583 6.60837
49 1 9.23926 3.87139 1.16809
50 1 9.20394 3.77082 6.17874
51 1 8.01145 6.04789 1.62621
52 1 8.01313 6.10134 6.32359
53 1 6.40277 8.1713 1.32556
54 1 6.36587 8.42086 6.8872
55 1 9.04905 8.57301 1.66757
56 1 9.25931 8.32856 7.14877
57 1 7.73587 1.49448 1.102
58 1 8.04263 1.57534 6.67638
59 1 6.47806 3.64778 1.04102
60 1 6.5183 3.71297 6.35778
61 1 5.08838 5.97932 0.571442
62 1 5.37312 5.9917 6.42334
63 1 3.72641 8.26937 0.974568
64 1 4.08958 8.1508 6.11897
