LAMMPS (29 Sep 2021 - Update 1)
Reading data file ...
  triclinic box = (0.0000000 0.0000000 0.0000000) to (10.560000 9.1452283 10.340000) with tilt (0.0000000 0.0000000 0.0000000)
  1 by 1 by 1 MPI processor grid
  reading atoms ...
  64 atoms
  read_data CPU = 0.001 seconds
Neighbor list info ...
  update every 1 steps, delay 0 steps, check yes
  max neighbors/atom: 2000, page size: 100000
  master list distance cutoff = 7
  ghost atom cutoff = 7
  binsize = 3.5, bins = 4 3 3
  1 neighbor lists, perpetual/occasional/extra = 1 0 0
  (1) pair mlip, perpetual
      attributes: full, newton on
      pair build: full/bin/atomonly
      stencil: full/bin/3d
      bin: standard
Setting up Verlet run ...
  Unit style    : metal
  Current step  : 0
  Time step     : 0.001
Per MPI rank memory allocation (min/avg/max) = 3.089 | 3.089 | 3.089 Mbytes
Step Time Temp Volume Press 
       0            0         1380    998.57113   -5378.8127 
       1        0.001    1379.0026    998.57113   -5344.1613 
       2        0.002    1376.0172    998.57113   -5240.4197 
       3        0.003    1371.0617    998.57113   -5068.0818 
       4        0.004    1364.1616    998.57113   -4827.8904 
       5        0.005    1355.3503    998.57113   -4521.3554 
       6        0.006    1344.6698    998.57113   -4152.1491 
       7        0.007    1332.1713    998.57113   -3726.8366 
       8        0.008    1317.9141    998.57113   -3245.2336 
       9        0.009    1301.9636    998.57113    -2707.147 
      10         0.01    1284.3917    998.57113    -2112.526 
Loop time of 0.213597 on 1 procs for 10 steps with 64 atoms

Performance: 4.045 ns/day, 5.933 hours/ns, 46.817 timesteps/s
96.2% CPU use with 1 MPI tasks x no OpenMP threads

MPI task timing breakdown:
Section |  min time  |  avg time  |  max time  |%varavg| %total
---------------------------------------------------------------
Pair    | 0.21349    | 0.21349    | 0.21349    |   0.0 | 99.95
Neigh   | 0          | 0          | 0          |   0.0 |  0.00
Comm    | 3.1803e-05 | 3.1803e-05 | 3.1803e-05 |   0.0 |  0.01
Output  | 3.9627e-05 | 3.9627e-05 | 3.9627e-05 |   0.0 |  0.02
Modify  | 2.284e-05  | 2.284e-05  | 2.284e-05  |   0.0 |  0.01
Other   |            | 1.127e-05  |            |       |  0.01

Nlocal:        64.0000 ave          64 max          64 min
Histogram: 1 0 0 0 0 0 0 0 0 0
Nghost:        886.000 ave         886 max         886 min
Histogram: 1 0 0 0 0 0 0 0 0 0
Neighs:         0.00000 ave           0 max           0 min
Histogram: 1 0 0 0 0 0 0 0 0 0
FullNghs:      6272.00 ave        6272 max        6272 min
Histogram: 1 0 0 0 0 0 0 0 0 0

Total # of neighbors = 6272
Ave neighs/atom = 98.000000
Neighbor list builds = 0
Dangerous builds = 0
Setting up Verlet run ...
  Unit style    : metal
  Current step  : 10
  Time step     : 0.001
Per MPI rank memory allocation (min/avg/max) = 3.089 | 3.089 | 3.089 Mbytes
Step Time Temp Volume Press 
      10         0.01    1284.3917    998.57113    -2112.526 
      11        0.011    1265.2771    998.57113   -1469.0915 
      12        0.012    1244.7058    998.57113   -780.13388 
      13        0.013    1222.7695    998.57113    -44.62835 
      14        0.014     1199.566    998.57113    737.27491 
      15        0.015    1175.1983    998.57113    1558.9854 
      16        0.016    1149.7748    998.57113    2418.5989 
      17        0.017    1123.4087    998.57113    3310.6488 
      18        0.018    1096.2172    998.57113    4231.7988 
      19        0.019     1068.321    998.57113    5175.9908 
      20         0.02     1039.845    998.57113    6142.5571 
      21        0.021    1010.9171    998.57113    7125.9622 
      22        0.022    981.66762    998.57113     8121.026 
      23        0.023    952.22788    998.57113    9124.1898 
      24        0.024    922.73035    998.57113    10132.173 
      25        0.025    893.30734    998.57113    11139.512 
      26        0.026    864.09029    998.57113     12144.18 
      27        0.027    835.20909    998.57113     13144.15 
      28        0.028    806.79052    998.57113    14132.797 
      29        0.029    778.95707    998.57113    15106.331 
      30         0.03    751.82627    998.57113    16060.877 
      31        0.031     725.5095    998.57113     16991.34 
      32        0.032    700.11125    998.57113    17895.009 
      33        0.033    675.72851    998.57113    18769.791 
      34        0.034    652.45009    998.57113    19614.182 
      35        0.035    630.35543    998.57113    20423.123 
      36        0.036    609.51392    998.57113     21194.29 
      37        0.037    589.98479    998.57113    21926.872 
      38        0.038    571.81669    998.57113    22619.358 
      39        0.039    555.04712    998.57113    23271.056 
      40         0.04     539.7022    998.57113     23878.53 
      41        0.041    525.79683    998.57113    24441.386 
      42        0.042    513.33494    998.57113     24960.01 
      43        0.043    502.30959    998.57113     25432.78 
      44        0.044    492.70322    998.57113    25859.556 
      45        0.045    484.48825    998.57113    26241.369 
      46        0.046    477.62784    998.57113    26579.914 
      47        0.047    472.07655    998.57113    26876.221 
      48        0.048    467.78092    998.57113    27131.278 
      49        0.049     464.6801    998.57113    27345.162 
      50         0.05    462.70671    998.57113    27519.922 
      51        0.051    461.78793    998.57113    27657.576 
      52        0.052    461.84637    998.57113    27759.629 
      53        0.053    462.80085    998.57113    27827.788 
      54        0.054    464.56747    998.57113    27866.634 
      55        0.055    467.06041    998.57113    27877.561 
      56        0.056    470.19301    998.57113    27862.802 
      57        0.057    473.87863    998.57113    27824.003 
      58        0.058    478.03104    998.57113    27763.132 
      59        0.059    482.56564    998.57113    27685.449 
      60         0.06    487.40013    998.57113    27592.203 
      61        0.061    492.45498    998.57113    27487.572 
      62        0.062    497.65398    998.57113    27374.032 
      63        0.063    502.92457    998.57113     27252.33 
      64        0.064    508.19787    998.57113     27122.04 
      65        0.065    513.40951    998.57113    26989.087 
      66        0.066    518.50057    998.57113    26855.449 
      67        0.067    523.41732    998.57113    26723.287 
      68        0.068      528.111    998.57113     26592.01 
      69        0.069    532.53792    998.57113    26463.779 
      70         0.07     536.6599    998.57113     26341.39 
      71        0.071    540.44433    998.57113    26226.453 
      72        0.072    543.86396    998.57113    26119.953 
      73        0.073    546.89663    998.57113    26020.073 
      74        0.074    549.52528    998.57113    25930.003 
      75        0.075    551.73801    998.57113    25851.509 
      76        0.076    553.52769    998.57113    25784.703 
      77        0.077    554.89176    998.57113    25730.002 
      78        0.078    555.83214    998.57113    25685.924 
      79        0.079    556.35479    998.57113    25653.289 
      80         0.08    556.46927    998.57113    25633.852 
      81        0.081    556.18869    998.57113    25627.173 
      82        0.082    555.52941    998.57113    25631.673 
      83        0.083    554.51073    998.57113    25647.266 
      84        0.084    553.15473    998.57113    25673.992 
      85        0.085     551.4859    998.57113    25710.968 
      86        0.086    549.53091    998.57113    25757.455 
      87        0.087    547.31818    998.57113    25812.173 
      88        0.088     544.8777    998.57113    25874.861 
      89        0.089    542.24097    998.57113    25944.931 
      90         0.09    539.44057    998.57113    26021.333 
      91        0.091    536.50989    998.57113    26102.845 
      92        0.092    533.48283    998.57113    26188.232 
      93        0.093    530.39371    998.57113     26275.57 
      94        0.094      527.277    998.57113    26363.917 
      95        0.095    524.16716    998.57113    26453.913 
      96        0.096    521.09859    998.57113    26543.481 
      97        0.097    518.10531    998.57113    26629.307 
      98        0.098     515.2205    998.57113    26712.643 
      99        0.099    512.47629    998.57113    26793.051 
     100          0.1    509.90368    998.57113    26869.479 
Loop time of 1.82844 on 1 procs for 90 steps with 64 atoms

Performance: 4.253 ns/day, 5.643 hours/ns, 49.222 timesteps/s
100.0% CPU use with 1 MPI tasks x no OpenMP threads

MPI task timing breakdown:
Section |  min time  |  avg time  |  max time  |%varavg| %total
---------------------------------------------------------------
Pair    | 1.8274     | 1.8274     | 1.8274     |   0.0 | 99.94
Neigh   | 0.00020358 | 0.00020358 | 0.00020358 |   0.0 |  0.01
Comm    | 0.0002956  | 0.0002956  | 0.0002956  |   0.0 |  0.02
Output  | 0.0003257  | 0.0003257  | 0.0003257  |   0.0 |  0.02
Modify  | 0.00016348 | 0.00016348 | 0.00016348 |   0.0 |  0.01
Other   |            | 7.513e-05  |            |       |  0.00

Nlocal:        64.0000 ave          64 max          64 min
Histogram: 1 0 0 0 0 0 0 0 0 0
Nghost:        886.000 ave         886 max         886 min
Histogram: 1 0 0 0 0 0 0 0 0 0
Neighs:         0.00000 ave           0 max           0 min
Histogram: 1 0 0 0 0 0 0 0 0 0
FullNghs:      5892.00 ave        5892 max        5892 min
Histogram: 1 0 0 0 0 0 0 0 0 0

Total # of neighbors = 5892
Ave neighs/atom = 92.062500
Neighbor list builds = 1
Dangerous builds = 0
Setting up Verlet run ...
  Unit style    : metal
  Current step  : 100
  Time step     : 0.001
Per MPI rank memory allocation (min/avg/max) = 3.089 | 3.089 | 3.089 Mbytes
Step Time Temp Volume Press 
     100          0.1    509.90368    998.57113    26869.479 
     110         0.11    499.10541    998.57113    27251.694 
     120         0.12    522.13037    998.57113    26715.025 
     130         0.13    565.09257    998.57113    25553.712 
     140         0.14    602.97332    998.57113    24447.489 
     150         0.15    627.34647    998.57113    23756.657 
     160         0.16    639.62268    998.57113    23504.043 
     170         0.17    637.00333    998.57113    23655.278 
     180         0.18    623.95569    998.57113    24124.987 
     190         0.19    617.72246    998.57113      24409.7 
     200          0.2    631.09068    998.57113     24237.19 
     210         0.21    657.40467    998.57113    23791.869 
     220         0.22    681.47592    998.57113    23458.702 
     230         0.23    697.28613    998.57113    23303.254 
     240         0.24    710.31502    998.57113    23137.395 
     250         0.25    726.96639    998.57113    22826.872 
     260         0.26    745.94565    998.57113    22454.325 
     270         0.27     762.3851    998.57113    22143.891 
     280         0.28     771.7154    998.57113    22095.312 
     290         0.29    766.66694    998.57113    22436.338 
     300          0.3    743.75318    998.57113    23230.401 
     310         0.31    715.38478    998.57113     23968.61 
     320         0.32    705.17906    998.57113    24112.104 
     330         0.33    722.68715    998.57113    23525.008 
     340         0.34      746.912    998.57113    22872.477 
     350         0.35    743.77074    998.57113    23091.725 
     360         0.36    698.42393    998.57113    24549.029 
     370         0.37    631.92233    998.57113    26603.989 
     380         0.38    589.91515    998.57113    27841.758 
     390         0.39     607.3245    998.57113    27287.694 
     400          0.4    677.93635    998.57113    25027.088 
     410         0.41    760.66955    998.57113    22207.232 
     420         0.42    812.95441    998.57113    20139.872 
     430         0.43    815.29365    998.57113    19598.221 
     440         0.44    772.02084    998.57113    20626.881 
     450         0.45    702.95714    998.57113    22520.422 
     460         0.46    639.29385    998.57113    24133.268 
     470         0.47    612.93667    998.57113    24516.946 
     480         0.48     631.3647    998.57113    23450.282 
     490         0.49    667.51118    998.57113    21748.342 
     500          0.5    684.61203    998.57113    20512.476 
     510         0.51    667.98888    998.57113    20238.049 
     520         0.52    634.17812    998.57113    20559.245 
     530         0.53    611.72716    998.57113    20625.675 
     540         0.54    612.55374    998.57113    20079.562 
     550         0.55    621.71312    998.57113    19227.878 
     560         0.56    615.74626    998.57113    18762.774 
     570         0.57    589.52881    998.57113    18883.449 
     580         0.58    562.98997    998.57113    19152.681 
     590         0.59    560.04248    998.57113    18854.154 
     600          0.6     582.7214    998.57113    17853.995 
     610         0.61    612.89732    998.57113    16545.174 
     620         0.62    633.71664    998.57113     15506.85 
     630         0.63    639.88089    998.57113    15011.437 
     640         0.64    636.00462    998.57113    14926.284 
     650         0.65    632.26685    998.57113    14965.838 
     660         0.66    635.64121    998.57113    14932.694 
     670         0.67    643.54844    998.57113    14918.237 
     680         0.68     648.7859    998.57113    15098.202 
     690         0.69    645.27819    998.57113     15674.52 
     700          0.7    629.32097    998.57113    16695.992 
     710         0.71     603.5588    998.57113    18094.385 
     720         0.72    575.87174    998.57113    19705.933 
     730         0.73    551.42285    998.57113    21318.831 
     740         0.74    536.06276    998.57113    22689.106 
     750         0.75    545.01002    998.57113     23213.84 
     760         0.76    595.72362    998.57113    22443.498 
     770         0.77    684.45445    998.57113    20586.238 
     780         0.78    774.52521    998.57113    18670.729 
     790         0.79    821.26296    998.57113    17938.914 
     800          0.8    807.30749    998.57113    18965.157 
     810         0.81    750.42152    998.57113    21274.229 
     820         0.82    686.46628    998.57113    23824.137 
     830         0.83    644.37854    998.57113    25745.433 
     840         0.84    630.73548    998.57113    26688.001 
     850         0.85     637.4553    998.57113     26868.71 
     860         0.86    657.81769    998.57113    26473.762 
     870         0.87    691.04178    998.57113    25592.202 
     880         0.88    732.66083    998.57113    24440.202 
     890         0.89    765.86598    998.57113    23501.264 
     900          0.9    771.66281    998.57113    23442.531 
     910         0.91    744.28802    998.57113    24509.634 
     920         0.92    694.40194    998.57113    26337.904 
     930         0.93    643.38633    998.57113    28035.995 
     940         0.94    616.67665    998.57113    28811.625 
     950         0.95    632.47847    998.57113    28206.357 
     960         0.96    684.17227    998.57113     26467.86 
     970         0.97    741.91837    998.57113    24472.579 
     980         0.98    777.88801    998.57113    23053.788 
     990         0.99    785.82368    998.57113    22466.348 
    1000            1    774.29393    998.57113    22622.648 
Loop time of 17.9986 on 1 procs for 900 steps with 64 atoms

Performance: 4.320 ns/day, 5.555 hours/ns, 50.004 timesteps/s
100.0% CPU use with 1 MPI tasks x no OpenMP threads

MPI task timing breakdown:
Section |  min time  |  avg time  |  max time  |%varavg| %total
---------------------------------------------------------------
Pair    | 17.99      | 17.99      | 17.99      |   0.0 | 99.95
Neigh   | 0.0030496  | 0.0030496  | 0.0030496  |   0.0 |  0.02
Comm    | 0.0028889  | 0.0028889  | 0.0028889  |   0.0 |  0.02
Output  | 0.00039138 | 0.00039138 | 0.00039138 |   0.0 |  0.00
Modify  | 0.0015541  | 0.0015541  | 0.0015541  |   0.0 |  0.01
Other   |            | 0.0006883  |            |       |  0.00

Nlocal:        64.0000 ave          64 max          64 min
Histogram: 1 0 0 0 0 0 0 0 0 0
Nghost:        880.000 ave         880 max         880 min
Histogram: 1 0 0 0 0 0 0 0 0 0
Neighs:         0.00000 ave           0 max           0 min
Histogram: 1 0 0 0 0 0 0 0 0 0
FullNghs:      5898.00 ave        5898 max        5898 min
Histogram: 1 0 0 0 0 0 0 0 0 0

Total # of neighbors = 5898
Ave neighs/atom = 92.156250
Neighbor list builds = 15
Dangerous builds = 0
Setting up Verlet run ...
  Unit style    : metal
  Current step  : 1000
  Time step     : 0.001
Per MPI rank memory allocation (min/avg/max) = 3.089 | 3.089 | 3.089 Mbytes
Step Time Temp Volume Press 
    1000            1    774.29393    998.57113    22622.648 
    1100          1.1    604.11785    998.57113    26849.579 
    1200          1.2    718.49867    998.57113    16427.825 
    1300          1.3    561.10746    998.57113    18799.333 
    1400          1.4    651.52039    998.57113    21623.507 
    1500          1.5    823.85657    998.57113    22066.158 
    1600          1.6    611.68551    998.57113     27712.45 
    1700          1.7    676.01834    998.57113    22944.072 
    1800          1.8    668.48349    998.57113    28392.227 
    1900          1.9    831.24892    998.57113    28791.037 
    2000            2    882.47167    998.57113    25558.259 
    2100          2.1    710.54992    998.57113     23785.19 
    2200          2.2    654.19541    998.57113    23218.987 
    2300          2.3    701.34725    998.57113    22610.625 
    2400          2.4    743.13302    998.57113    23107.871 
    2500          2.5    762.15853    998.57113    27207.268 
    2600          2.6    764.96464    998.57113    29298.483 
    2700          2.7    614.77387    998.57113    24601.385 
    2800          2.8    555.06538    998.57113    25444.373 
    2900          2.9     688.8028    998.57113    24094.431 
    3000            3    786.68007    998.57113     21220.52 
    3100          3.1    569.21504    998.57113    24360.906 
    3200          3.2    722.88124    998.57113    16344.147 
    3300          3.3    648.40942    998.57113    22786.121 
    3400          3.4    725.19961    998.57113      27038.1 
    3500          3.5    825.36956    998.57113    25115.476 
    3600          3.6    638.49324    998.57113    26423.084 
    3700          3.7    659.64736    998.57113    24795.424 
    3800          3.8    721.16563    998.57113    26683.864 
    3900          3.9    754.25338    998.57113    30103.186 
    4000            4     679.7013    998.57113     29879.52 
    4100          4.1      695.386    998.57113    25006.061 
    4200          4.2    653.62696    998.57113    24041.708 
    4300          4.3    649.48313    998.57113    21824.603 
    4400          4.4    738.41071    998.57113    20157.578 
    4500          4.5    640.16482    998.57113    24939.117 
    4600          4.6    799.58275    998.57113    23465.747 
    4700          4.7    751.62444    998.57113    25326.642 
    4800          4.8     558.3185    998.57113    26853.161 
    4900          4.9    679.35545    998.57113    21087.354 
    5000            5     677.2937    998.57113    22072.663 
    5100          5.1    791.53141    998.57113    20282.269 
    5200          5.2    662.23148    998.57113    26334.375 
    5300          5.3    744.74636    998.57113    22146.083 
    5400          5.4    641.13227    998.57113    23131.547 
    5500          5.5    599.07133    998.57113    21625.569 
    5600          5.6     706.5005    998.57113    25127.753 
    5700          5.7    788.61052    998.57113    26479.795 
    5800          5.8    647.96984    998.57113    28152.318 
    5900          5.9    777.83926    998.57113    20697.858 
    6000            6    566.67989    998.57113    21629.018 
    6100          6.1    580.10951    998.57113    15974.522 
    6200          6.2     640.5435    998.57113    16988.662 
    6300          6.3    647.14832    998.57113     19470.03 
    6400          6.4    696.75433    998.57113    22337.768 
    6500          6.5    666.28533    998.57113     28307.27 
    6600          6.6    780.34124    998.57113    24059.891 
    6700          6.7    773.12322    998.57113    21663.115 
    6800          6.8    628.69388    998.57113    24537.722 
    6900          6.9    703.53555    998.57113    19574.283 
    7000            7    755.63553    998.57113    19136.308 
    7100          7.1    608.69863    998.57113    26341.122 
    7200          7.2    775.96879    998.57113    28668.373 
    7300          7.3    756.46508    998.57113    29801.411 
    7400          7.4    841.23413    998.57113     20882.79 
    7500          7.5    652.79204    998.57113    24247.768 
    7600          7.6    644.62023    998.57113     23590.17 
    7700          7.7    754.86636    998.57113    20870.216 
    7800          7.8    693.50011    998.57113    23532.133 
    7900          7.9    644.98627    998.57113    20327.735 
    8000            8    598.35035    998.57113    21941.353 
    8100          8.1    700.32716    998.57113    24660.003 
    8200          8.2    734.23222    998.57113    27082.697 
    8300          8.3     740.9893    998.57113    25077.342 
    8400          8.4    605.35523    998.57113    19530.754 
    8500          8.5    566.85294    998.57113    19301.858 
    8600          8.6    666.57801    998.57113    20594.212 
    8700          8.7    709.00742    998.57113    26314.962 
    8800          8.8    713.13663    998.57113    26468.808 
    8900          8.9    708.25242    998.57113    19931.667 
    9000            9    607.18759    998.57113    17157.509 
    9100          9.1    609.60938    998.57113    17442.339 
    9200          9.2    670.93286    998.57113    19994.735 
    9300          9.3    632.43136    998.57113    21836.163 
    9400          9.4    663.57268    998.57113    23804.187 
    9500          9.5    672.19611    998.57113    28967.304 
    9600          9.6    716.07537    998.57113    28394.342 
    9700          9.7    698.48291    998.57113    26690.483 
    9800          9.8    515.36557    998.57113    26158.294 
    9900          9.9     704.2868    998.57113    18139.138 
   10000           10    628.62125    998.57113    22514.891 
Loop time of 179.326 on 1 procs for 9000 steps with 64 atoms

Performance: 4.336 ns/day, 5.535 hours/ns, 50.188 timesteps/s
100.0% CPU use with 1 MPI tasks x no OpenMP threads

MPI task timing breakdown:
Section |  min time  |  avg time  |  max time  |%varavg| %total
---------------------------------------------------------------
Pair    | 179.24     | 179.24     | 179.24     |   0.0 | 99.95
Neigh   | 0.032645   | 0.032645   | 0.032645   |   0.0 |  0.02
Comm    | 0.029062   | 0.029062   | 0.029062   |   0.0 |  0.02
Output  | 0.00059008 | 0.00059008 | 0.00059008 |   0.0 |  0.00
Modify  | 0.01519    | 0.01519    | 0.01519    |   0.0 |  0.01
Other   |            | 0.006735   |            |       |  0.00

Nlocal:        64.0000 ave          64 max          64 min
Histogram: 1 0 0 0 0 0 0 0 0 0
Nghost:        874.000 ave         874 max         874 min
Histogram: 1 0 0 0 0 0 0 0 0 0
Neighs:         0.00000 ave           0 max           0 min
Histogram: 1 0 0 0 0 0 0 0 0 0
FullNghs:      5862.00 ave        5862 max        5862 min
Histogram: 1 0 0 0 0 0 0 0 0 0

Total # of neighbors = 5862
Ave neighs/atom = 91.593750
Neighbor list builds = 163
Dangerous builds = 0
System init for write_data ...
Total wall time: 0:03:19
