LAMMPS data file via write_data, version 29 Sep 2021, timestep = 10000

64 atoms
1 atom types

0 10.560000000000285 xlo xhi
0 9.145228263963919 ylo yhi
0 10.34 zlo zhi
0 0 0 xy xz yz

Masses

1 65.38

Atoms # atomic

1 1 1.0341270841670103 5.017863923046672 3.678931196518996 0 0 0
2 1 1.5242377715557482 5.050744348753875 8.548176596172022 0 0 0
3 1 0.0015359155144851347 7.3856871842187015 4.174240229533676 0 0 0
4 1 0.12708942909710516 7.256521327349868 9.522279162310873 0 0 0
5 1 6.564945927545884 0.5860330922114854 4.052231005759962 0 0 0
6 1 6.556857296316445 0.6490842293359905 9.205491799663537 0 0 0
7 1 4.9867276943238705 2.853860658750261 4.287074439352482 0 0 0
8 1 4.877751124331881 3.125265113609353 9.531683755126462 0 0 0
9 1 1.0673101701258632 0.6904360845589733 3.9390523265728814 0 0 0
10 1 1.0805305637161828 0.4774780345470718 9.155051824413658 0 0 0
11 1 10.287449016511209 2.7325964414200086 4.649614779703424 -1 0 0
12 1 10.501067850904327 3.178067869249122 9.290030012595585 -1 0 0
13 1 3.9086055756534606 0.5354076904414897 3.7972738884494963 0 0 0
14 1 3.7635857070582452 0.8209122884402038 9.322986658606027 0 0 0
15 1 2.4713652980464724 2.74394464878916 3.3358538833578657 0 0 0
16 1 2.5155947931652527 2.8600056983885223 8.582532106332371 0 0 0
17 1 6.415572260644344 5.1949939416519655 3.5653724337728665 0 0 0
18 1 6.523654917358775 5.330954588035127 8.3251390528624 0 0 0
19 1 5.091723117823055 7.399390652602788 3.5197790830546865 0 0 0
20 1 5.252567040151682 7.822350137658879 9.101657113591612 0 0 0
21 1 8.882715899121973 4.786677802813992 4.108573196743216 0 0 0
22 1 9.068054384047164 5.32426135475005 8.858415056101844 0 0 0
23 1 7.845500544693276 7.448826925451363 3.7965132203825047 0 0 0
24 1 7.7002649537338925 7.502455412016133 9.46156494236098 0 0 0
25 1 3.7557168644302084 5.114938696884857 3.967681965813603 0 0 0
26 1 4.026672757448938 5.593582782863268 9.092329592981354 0 0 0
27 1 2.4148435809291673 7.311794120044254 3.836838729264979 0 0 0
28 1 2.667445801118159 7.67526238331252 8.809598414562574 0 0 0
29 1 9.135188565400505 0.5701555958649598 3.7296209522340784 0 0 0
30 1 9.10470784681416 0.5272845547251134 9.320878750968077 0 0 0
31 1 7.451081523363128 2.7969572329532344 3.39714685682665 0 0 0
32 1 7.158419721079614 2.9669943109311263 8.835208226617706 0 0 0
33 1 5.389805059823825 1.7635089960611285 1.892273821763127 0 0 0
34 1 5.652268739997709 1.6448007877896988 6.661754726890603 0 0 0
35 1 3.6665272809411142 3.853463890834868 1.220015629462812 0 0 0
36 1 4.5443716388144555 4.066384463864968 6.759882006943358 0 0 0
37 1 2.6398044539927548 6.076025256195572 1.1612583190562717 0 0 0
38 1 3.1148693601316224 6.284868371300067 6.54667293770137 0 0 0
39 1 1.1625139422183854 8.277039068997832 1.1518269121261986 0 0 0
40 1 1.837874626778981 8.444753309074606 6.409810279942956 0 0 0
41 1 0.0953672179736527 2.0885790010605296 1.6893331735274888 0 0 0
42 1 0.4590773419841626 1.5732028328927214 6.9163647419535 0 0 0
43 1 2.50244782201464 1.534191287702608 1.0196399441529584 0 0 0
44 1 2.986973026452791 1.5968130228371278 6.166693724030884 0 0 0
45 1 1.0896275433909497 4.334602136065015 0.6518025883277365 0 0 0
46 1 1.8067974283626507 3.8536927172904565 6.1193601086279035 0 0 0
47 1 10.405369309205186 6.453293637185426 2.0812379512581303 -1 0 0
48 1 0.47745855210150406 5.974495902156778 6.277289802032148 0 0 0
49 1 9.083816634736012 4.166559181172928 1.4526626668717835 0 0 0
50 1 9.516833487775527 3.8578106019084992 6.775020757684998 0 0 0
51 1 7.78860215307483 6.116499302368483 1.4897555679159822 0 0 0
52 1 8.345195921881807 6.43523813721313 6.236952219031065 0 0 0
53 1 6.007987620569175 8.646744349240201 1.2482260640016822 0 0 0
54 1 7.35345290073742 8.6287525749903 6.948099906794622 0 0 0
55 1 9.059300145257444 8.636899144186374 1.417511945437943 0 0 0
56 1 9.905721392321905 8.26726110900572 6.795668539757137 0 0 0
57 1 8.05439595214885 1.7437611934176527 0.8710073929794793 0 0 0
58 1 8.272853005215927 1.5073191912175212 6.289465604816946 0 0 0
59 1 6.5563897978239485 3.8212186472263006 0.9925043309303183 0 0 0
60 1 6.953834601293455 4.08311047300282 5.859079876264977 0 0 0
61 1 5.104585199874167 6.098466476010761 1.4505967394918482 0 0 0
62 1 5.659620304500906 6.3850449524640265 6.184475716611491 0 0 0
63 1 3.7246853972810285 8.447795416040034 1.2095804015474287 0 0 0
64 1 4.378661145142011 8.654319890403512 6.135354349458992 0 0 0

Velocities

1 0.521523651538486 -0.477586204146171 -1.6159577705169579
2 3.6268734375855662 -0.7977240144376077 -0.41490745242673643
3 -1.558132410579056 5.6218145311751595 -1.4067467329846273
4 -1.3634861457974667 -1.5284352926811158 2.155032740922043
5 -1.3321410579741146 -1.0783631163160774 -1.6612077069304416
6 3.3432045815240636 -7.392269842466278 1.8474063112761818
7 -2.1671822779794048 -1.0112575613947383 0.9007522345690612
8 2.5597214285957683 5.575850880893913 -1.6108946739070134
9 1.6432494812084701 -0.5692882353394639 2.6365235473491913
10 -2.068000987523005 2.5410093967704195 0.19505037654283722
11 -1.9432239991914593 -1.7620676147711822 -2.316506330920483
12 1.9908954292441452 0.6857013095730193 2.7265972425297997
13 0.10765814734135885 -1.1340550671700034 -2.199832089457797
14 3.011510205654594 0.13070848584924177 0.2987802314626699
15 6.651891634052048 -0.5162041700974953 4.90850676944845
16 -2.146531363048121 2.520837820463261 4.44339467441525
17 4.47126756073914 4.343927164255871 2.699859532905125
18 3.388640616461289 -0.5764467137616011 1.5664003062892307
19 -0.6774568268569927 -0.2984165912785725 4.462510195446633
20 0.5902455891464392 0.1635446055890118 -4.428360801712153
21 -2.672663004384468 -1.6204925309910523 -1.8657846988657336
22 2.0898482596900383 -4.81400924410242 0.26701107009292746
23 -0.7279087012309219 0.6968226244258565 -7.829541499304794
24 -0.9162088790576033 4.51942635889973 0.9745238028443176
25 -3.1241762435349862 -4.152641884779416 -0.8434968107982919
26 2.4693805766322483 5.595027422188046 1.8946560973999997
27 0.5274484527225469 -3.9571680776924603 -0.3461786674503183
28 -2.3414615864876076 2.7063753851615706 -0.6376019680939667
29 -3.392096597198868 0.12608152075789628 -2.509995888893897
30 -2.673700220203041 0.16579690270412403 -1.2641054744700546
31 1.1225494016387403 -4.4442610662720785 1.517247837455349
32 1.0031281891304424 1.7261076840635219 8.21189991721639
33 -2.8151496209622784 -2.7913151148314017 2.243408256593094
34 -3.6630150320671344 1.2200376921335603 -4.66000479037345
35 -1.2921485072835448 1.2188276834276373 1.7976033900123953
36 0.6308173516890451 2.429590857794209 -1.4316179645238043
37 -2.0522106904691366 3.104366450811154 1.2739513038170494
38 -1.8203083990175726 -0.7702469866742707 3.4445671803304796
39 -3.6223416052163104 3.929416285226611 -1.5436629108906557
40 2.0292012244810156 0.029803432407387694 1.9752528394788385
41 2.1942638218296024 0.516344946928291 -0.46064364995678764
42 -1.51956561878832 2.5710802616547226 0.22157549151319728
43 1.160039880431137 -3.890357351756688 -1.5547313049493532
44 0.08207873676082578 -2.7336088859178105 -0.9717638468220363
45 -6.780531472420913 -0.5091985451036465 -0.40828468989929856
46 2.1293219630485845 0.21910807769424553 1.2140911201821967
47 4.738803186859258 4.585607569565509 5.068612868725933
48 -1.5573610316728594 -3.3540881258601862 -4.878525331495443
49 0.7482006232743397 2.3800941854004125 2.961934177770117
50 -2.5739117229142376 -1.0045189668317265 1.3919220069117044
51 -2.791249447185163 0.00025355658598598727 -3.9522501472112834
52 1.2019667053080068 1.5445832944711484 -5.539330389036742
53 0.18040325786618286 -3.897833731612612 -0.1249945322782879
54 4.4492440720596385 4.560888079636363 -2.1129412946538952
55 -0.4613720238512127 -1.456811532903529 -1.088118707708221
56 0.8108084769820822 1.3800126884041803 -0.741536148625998
57 -6.377447300684995 0.5317420368808579 -3.743512380762465
58 1.169496956227835 0.42989795658587865 -1.9444173809487373
59 0.22549327464751054 -6.015987134272505 6.412458258355159
60 3.851633303237775 -0.32131637027521337 0.8452151112298507
61 -1.4579509090464904 -5.228040040108679 -3.252006371031904
62 0.3890672402241341 4.048430040237067 1.1294394932342025
63 0.45329209505686396 -0.6541074655054588 -0.6599925338179861
64 2.325764869738236 -3.060999709264325 -1.6667314446001809
