ITEM: TIMESTEP
10000
ITEM: NUMBER OF ATOMS
64
ITEM: BOX BOUNDS xy xz yz pp pp pp
0.0000000000000000e+00 1.0560000000000285e+01 0.0000000000000000e+00
0.0000000000000000e+00 9.1452282639639186e+00 0.0000000000000000e+00
0.0000000000000000e+00 1.0340000000000000e+01 0.0000000000000000e+00
ITEM: ATOMS id type x y z
1 1 1.03413 5.01786 3.67893
2 1 1.52424 5.05074 8.54818
3 1 0.00153592 7.38569 4.17424
4 1 0.127089 7.25652 9.52228
5 1 6.56495 0.586033 4.05223
6 1 6.55686 0.649084 9.20549
7 1 4.98673 2.85386 4.28707
8 1 4.87775 3.12527 9.53168
9 1 1.06731 0.690436 3.93905
10 1 1.08053 0.477478 9.15505
11 1 10.2874 2.7326 4.64961
12 1 10.5011 3.17807 9.29003
13 1 3.90861 0.535408 3.79727
14 1 3.76359 0.820912 9.32299
15 1 2.47137 2.74394 3.33585
16 1 2.51559 2.86001 8.58253
17 1 6.41557 5.19499 3.56537
18 1 6.52365 5.33095 8.32514
19 1 5.09172 7.39939 3.51978
20 1 5.25257 7.82235 9.10166
21 1 8.88272 4.78668 4.10857
22 1 9.06805 5.32426 8.85842
23 1 7.8455 7.44883 3.79651
24 1 7.70026 7.50246 9.46156
25 1 3.75572 5.11494 3.96768
26 1 4.02667 5.59358 9.09233
27 1 2.41484 7.31179 3.83684
28 1 2.66745 7.67526 8.8096
29 1 9.13519 0.570156 3.72962
30 1 9.10471 0.527285 9.32088
31 1 7.45108 2.79696 3.39715
32 1 7.15842 2.96699 8.83521
33 1 5.38981 1.76351 1.89227
34 1 5.65227 1.6448 6.66175
35 1 3.66653 3.85346 1.22002
36 1 4.54437 4.06638 6.75988
37 1 2.6398 6.07603 1.16126
38 1 3.11487 6.28487 6.54667
39 1 1.16251 8.27704 1.15183
40 1 1.83787 8.44475 6.40981
41 1 0.0953672 2.08858 1.68933
42 1 0.459077 1.5732 6.91636
43 1 2.50245 1.53419 1.01964
44 1 2.98697 1.59681 6.16669
45 1 1.08963 4.3346 0.651803
46 1 1.8068 3.85369 6.11936
47 1 10.4054 6.45329 2.08124
48 1 0.477459 5.9745 6.27729
49 1 9.08382 4.16656 1.45266
50 1 9.51683 3.85781 6.77502
51 1 7.7886 6.1165 1.48976
52 1 8.3452 6.43524 6.23695
53 1 6.00799 8.64674 1.24823
54 1 7.35345 8.62875 6.9481
55 1 9.0593 8.6369 1.41751
56 1 9.90572 8.26726 6.79567
57 1 8.0544 1.74376 0.871007
58 1 8.27285 1.50732 6.28947
59 1 6.55639 3.82122 0.992504
60 1 6.95383 4.08311 5.85908
61 1 5.10459 6.09847 1.4506
62 1 5.65962 6.38504 6.18448
63 1 3.72469 8.4478 1.20958
64 1 4.37866 8.65432 6.13535
