BEGIN_CFG
 Size
    64
 Supercell
        10.600000      0.000000      0.000000
         0.000000      9.179869      0.000000
         0.000000      0.000000     10.340000
 AtomData:  id type       cartes_x      cartes_y      cartes_z           fx          fy          fz
             1    0       1.024470      5.408170      3.928300     0.812192   -0.581888   -0.209573
             2    0       1.402460      5.495370      8.654150    -0.590593   -0.174385   -0.245914
             3    0      10.321560      7.416560      3.888850     0.436441    0.292205    0.766533
             4    0       0.001980      8.002610      9.016880    -0.493885   -1.308018   -0.013444
             5    0       6.189950      0.901780      3.494090     1.101350   -1.316819    0.916790
             6    0       7.052960      0.601070      9.237050    -0.504447    0.149844    0.512734
             7    0       5.260730      3.033680      3.189990    -0.599872    1.278952    0.350555
             8    0       5.501840      3.284070      9.234880    -0.849922   -0.410370   -0.052051
             9    0       1.433150      0.752130      3.487120    -0.322626   -0.453062    0.102510
            10    0       1.503080      0.631990      8.873830     0.257356    1.256289    0.144539
            11    0      10.470340      2.904120      3.354680     0.119552    0.082842    0.902377
            12    0       0.166320      3.125240      8.558650     0.259124   -0.599841    0.468576
            13    0       3.989310      0.834520      4.560020    -0.198100   -0.182163   -0.711149
            14    0       4.425600      0.822190      9.131590    -0.741995    0.577366    0.334748
            15    0       2.558240      2.930300      3.674510     0.807654    0.055632   -0.960479
            16    0       2.703810      2.902360      8.732150     0.202871   -0.035196    0.032503
            17    0       6.775030      5.458510      4.159280    -1.357908   -0.709736   -0.592159
            18    0       6.909910      5.390420      8.821830    -0.413931    0.666676    0.146237
            19    0       5.194480      7.691930      4.445760    -0.180720   -0.169607   -0.145698
            20    0       5.363450      7.799910      9.242260     0.051735   -1.318250    0.292954
            21    0       9.192330      5.125820      4.350080     0.281961   -0.280639   -0.211815
            22    0       9.486310      5.299020      8.871940    -0.640413    0.302722    0.651750
            23    0       7.747630      7.748930      4.176210    -0.090521    0.189095   -0.152106
            24    0       8.278170      7.490490     10.027100    -0.024106   -0.095718   -0.238891
            25    0       3.715500      5.222730      3.573940     0.291680    0.569614   -0.124018
            26    0       3.693470      5.143150      9.170940     1.055909    0.855272   -0.260280
            27    0       2.432700      7.626680      4.033240     0.283862   -0.063581   -0.093833
            28    0       2.579240      7.687470      9.528740     1.071192   -0.194399   -1.035856
            29    0       9.116630      0.674020      4.075110    -0.003173    0.335440   -0.712107
            30    0       9.370310      0.899220      8.671460     0.311165    0.261257    0.068213
            31    0       7.829430      2.967310      3.666720     0.026153    0.764023    0.962324
            32    0       7.871320      2.993710      8.674760     0.728371   -0.165903    0.216959
            33    0       5.411300      1.324750      1.221920    -0.510453    0.523746   -1.125179
            34    0       5.033860      1.689510      6.765190     0.874014    0.472333   -0.005127
            35    0       3.926410      3.990670      1.053640     0.392201   -0.575214    0.301501
            36    0       3.825000      4.138180      5.934700     1.078561   -1.136320    0.258397
            37    0       2.537310      6.247070      1.147480     0.964003   -0.512138    0.867099
            38    0       2.484160      6.075820      6.374270    -0.535226    0.753501    0.015160
            39    0       1.462720      8.528780      1.178190    -0.552410    0.251587    0.613195
            40    0       1.188000      8.617230      6.373470    -0.484293   -1.691341   -0.209722
            41    0      10.563210      1.713370      0.987830     0.390872   -1.694344   -0.464382
            42    0      10.451920      1.497390      5.949370     0.472699    0.873171    0.435029
            43    0       2.712180      1.555110      1.098600     0.367383    0.095436   -0.100896
            44    0       2.596280      1.287810      6.502830    -0.759254    2.315192    0.144718
            45    0       1.422260      3.862170      1.240160     0.781788    0.069691    0.048622
            46    0       1.460010      3.471110      5.672920    -1.157336    0.474708    1.271395
            47    0       0.177600      6.075310      0.681750    -0.872884    0.618760    0.190763
            48    0      10.242130      6.168870      6.653260     1.158727    0.806832   -0.483008
            49    0       9.664270      3.839540      1.163790    -1.782646    0.895545   -0.424620
            50    0       9.366310      3.883710      6.656940    -0.343790   -0.772494   -0.575471
            51    0       8.256530      5.832790      1.869520    -0.030961    0.826325    0.126821
            52    0       7.724860      6.092320      6.368790     0.019514    0.438077    0.541700
            53    0       6.693020      8.236470      1.561550     0.554427    0.102362   -0.065988
            54    0       6.560890      8.448710      7.052390    -0.003843   -0.118722   -0.459704
            55    0       9.544410      8.571910      2.000060    -0.471767    0.157556   -1.607649
            56    0       9.223050      8.501770      6.420350    -0.114641   -0.873813    0.240171
            57    0       7.929330      1.695680      1.621290     0.664616   -0.950390   -0.850633
            58    0       7.859660      1.315660      6.137380    -1.016857    0.974399    0.360767
            59    0       6.968220      3.924610      0.958420    -0.456781    0.025878   -0.110655
            60    0       6.623640      3.728010      6.502060    -0.442310   -0.058376   -0.386679
            61    0       5.387680      6.070730      1.610700     0.157970   -0.288510   -0.091312
            62    0       5.056620      6.229060      6.686260     0.402466   -0.052434    0.313708
            63    0       4.193320      8.359750      1.938460    -0.755627    0.007165   -0.054720
            64    0       3.692110      8.516420      6.990340     0.925481   -1.535823    0.175773
 Energy
        -62.961239260000
 PlusStress:  xx          yy          zz          yz          xz          xy
         9.38666    11.73347    14.17093    -1.95900     0.06739    -1.43673
 Feature   EFS_by	VASP
END_CFG

BEGIN_CFG
 Size
    64
 Supercell
        10.600000      0.000000      0.000000
         0.000000      9.179869      0.000000
         0.000000      0.000000     10.500000
 AtomData:  id type       cartes_x      cartes_y      cartes_z           fx          fy          fz
             1    0       2.028870      5.529840      3.403610    -0.810153   -0.236533   -0.244559
             2    0       1.308970      5.506910      9.342250    -0.162841   -0.995925   -0.007200
             3    0       0.224060      7.468500      3.534830    -0.451103    0.430072    0.562631
             4    0      10.284870      7.444860      9.481820     1.033684   -1.057133   -0.474163
             5    0       6.590080      0.757430      4.094480     0.866711    0.606433    0.154380
             6    0       6.823090      0.662090      9.665000    -0.200415   -0.228877   -0.907425
             7    0       5.518140      3.205460      3.806790     0.049919   -0.370763    0.702005
             8    0       5.480730      2.732550      8.600180    -0.115953    0.095335    0.694881
             9    0       1.668690      0.899690      4.642010    -0.594129    0.229837   -0.542135
            10    0       0.959690      0.313060      9.661500     0.655767    1.435984   -0.204677
            11    0       0.220130      3.085210      3.528440     0.193986   -0.176283    0.165821
            12    0       0.081020      3.089410      9.122370     0.047328   -0.252284   -0.178383
            13    0       4.119090      1.041610      4.091820    -0.376214    0.221773   -0.442810
            14    0       4.096620      0.508820      9.437180    -0.420145    0.342161   -0.467829
            15    0       2.965180      3.373030      4.496490     0.273430   -0.689103   -0.464706
            16    0       2.833580      2.716600      9.658970    -0.291797    0.409884    0.007716
            17    0       6.862180      5.254470      4.126160    -0.680778    0.278396   -0.228352
            18    0       6.649920      4.949360      9.389000    -0.226795   -0.072471   -0.501565
            19    0       5.265020      7.963660      3.850090     0.153168   -0.338348   -0.425490
            20    0       5.406610      7.633370      9.307650    -0.177237   -0.664193   -0.293392
            21    0       9.372540      5.212130      4.034710     0.539840    0.858656   -0.703767
            22    0       8.929550      5.204420      8.862130     0.969463   -0.582311   -0.030197
            23    0       7.731800      7.554260      3.729010     0.675065    0.085872   -0.268269
            24    0       7.907480      7.593710      9.220280    -0.730283   -0.095524   -0.551535
            25    0       4.261310      5.876460      4.378000     0.148384   -0.816182    0.413801
            26    0       4.277560      5.076900      9.717270    -1.033896   -0.224562   -0.346899
            27    0       2.754320      8.060800      3.798020    -0.310356   -0.594434   -0.188448
            28    0       2.636180      7.532840      9.319630     0.505145    0.371709   -0.210605
            29    0       9.265700      0.896460      3.747350     0.311549   -0.891943    0.071554
            30    0       9.451720      0.215880      8.274530    -0.168204    0.549683   -0.517599
            31    0       8.021410      3.008490      3.903580     0.061570   -0.047160   -0.062358
            32    0       8.220500      2.421210      8.579010    -0.023130    0.960445    0.174332
            33    0       5.213210      1.579050      0.943040    -0.483965    0.481893    0.496299
            34    0       5.132190      1.625590      6.370520     0.967867   -0.331202   -0.362399
            35    0       4.015000      3.835930      2.069300    -1.267368    0.374076   -0.744618
            36    0       3.698530      3.829980      6.906820    -0.416852    0.060338    0.226066
            37    0       2.673730      6.146020      1.111210    -0.358116   -0.529874   -0.337784
            38    0       2.321510      6.222010      6.863990     0.700372    0.235684    0.531238
            39    0       1.450260      8.391270      1.393950    -0.907235    0.172600    0.180121
            40    0       1.283800      8.531380      6.718250    -0.619451   -0.296684    0.067712
            41    0      10.342280      1.425270      1.496350     0.233777    0.107860   -0.285281
            42    0       0.485860      1.896740      6.542960    -0.479271    0.488100    0.469968
            43    0       2.269510      1.789500      1.907120     0.435946   -0.156885   -0.037324
            44    0       2.909070      1.282950      7.229970    -0.634077    0.318755    0.422115
            45    0       0.914780      3.808060      0.959920     0.341192    0.129898    0.056506
            46    0       1.203640      4.563330      5.594750    -0.846093   -0.424491    0.282890
            47    0      10.365330      6.086390      1.438860     0.368169   -0.080474   -0.025168
            48    0      10.236920      6.258010      6.993530     0.925537    0.300080   -0.106599
            49    0       8.795810      4.140840      1.348410     0.831809   -0.996657    0.208188
            50    0       9.415200      3.982730      6.179010    -0.307651   -0.939739    0.730144
            51    0       7.688200      6.164170      0.798320    -0.120434    0.714629    0.664148
            52    0       7.796760      6.108790      6.364880    -0.146076    0.120934    0.247324
            53    0       6.552200      8.586600      1.457100     0.264573   -0.332678    0.251469
            54    0       6.501290      8.273690      6.767930     0.019619    0.370165   -0.049096
            55    0       9.223600      8.330710      0.928500    -0.400686    0.792940    1.184856
            56    0       9.178300      8.214690      5.762130     0.375373    0.279498   -0.027795
            57    0       7.864450      1.799550      1.052840     0.352252   -0.151146    0.448528
            58    0       8.435620      1.439450      6.208630    -0.505824    0.259479   -0.173918
            59    0       6.314540      3.857640      1.266330     0.210661    0.254739    0.083885
            60    0       6.668510      3.824750      6.530470     0.259786   -0.490167   -0.088382
            61    0       5.115710      6.350760      1.308180     0.669790   -0.266158    0.419596
            62    0       5.186700      5.814270      7.136220    -0.014272    0.872613   -0.005762
            63    0       3.848710      8.569140      1.244090     0.474727    0.218855    0.335978
            64    0       3.882180      8.237080      6.302220     0.364344   -0.099190    0.252339
 Energy
        -62.950904380000
 PlusStress:  xx          yy          zz          yz          xz          xy
        11.20417     6.57647     6.55674     1.15943     0.38954     1.30895
 Feature   EFS_by	VASP
END_CFG

BEGIN_CFG
 Size
    64
 Supercell
        10.480000      0.000000      0.000000
         0.000000      9.075946      0.000000
         0.000000      0.000000     10.100000
 AtomData:  id type       cartes_x      cartes_y      cartes_z           fx          fy          fz
             1    0       1.340070      5.341970      3.869320    -0.288565    0.104103   -0.390985
             2    0       1.470590      5.385820      8.226660    -0.018167   -0.275639    0.380065
             3    0      10.329650      7.764320      3.553780     0.176601   -0.051834   -0.139905
             4    0       0.235200      7.562620      8.667900    -0.573170   -0.312290    0.059338
             5    0       6.492950      0.826610      3.277580    -0.485270   -0.115574    0.726528
             6    0       6.830660      0.916160      9.284040    -0.166641    1.300794    0.310458
             7    0       5.147480      3.139260      3.880170     0.358056    0.228133    0.531866
             8    0       5.319290      3.243590      9.214160     0.457762   -0.220061   -0.105930
             9    0       1.433270      0.893650      3.961270    -0.777298   -0.788145    0.618454
            10    0       1.289530      0.854340      9.050100     0.163893   -0.449433    0.058072
            11    0       0.013920      3.170430      3.719750    -0.534873   -0.161960    0.015118
            12    0       0.175880      3.046560      8.988150    -0.195773    0.073437   -0.249489
            13    0       3.940760      1.027580      3.451550     0.086867   -1.298352    0.472874
            14    0       4.273550      0.881070      8.655550    -0.040524   -0.282975    0.549605
            15    0       2.455910      2.956190      3.374100     0.440257    1.220563    0.577881
            16    0       2.670390      3.036350      9.047930     0.456009    0.443790    0.000895
            17    0       6.547540      5.564700      3.507930    -0.522005    0.227344   -0.124064
            18    0       6.448870      5.587910      8.191080     0.878076   -0.958881    0.369510
            19    0       5.209320      7.702360      4.237610    -0.172280    0.156075   -0.433238
            20    0       5.337860      7.487110      9.124790    -1.198290    0.170953    0.901459
            21    0       8.974850      5.587930      3.756300     1.217683    0.114855   -0.533928
            22    0       9.348100      5.194170      8.691070     0.234159    0.306511   -0.736078
            23    0       7.732040      7.959720      4.345600    -0.006614   -0.755149   -0.151683
            24    0       7.940760      7.276620      8.962600     0.404977    0.775916   -0.430730
            25    0       3.958920      5.349840      3.355590    -0.580981    0.312905    0.543184
            26    0       4.073730      5.383670      8.703150    -0.793390   -0.338475   -0.314000
            27    0       2.448880      7.652630      3.788720     0.436154    0.003057    0.001125
            28    0       2.766300      7.799900      9.025400     0.107413   -0.006251   -0.330460
            29    0       8.985880      0.883780      3.853220     0.764182    0.507746    0.470816
            30    0       9.261710      0.504080      9.106070     0.060977    1.069787   -0.338828
            31    0       7.801660      3.374590      3.865550    -0.277747   -0.890328   -0.321713
            32    0       8.161160      3.105750      9.189530    -0.902151   -0.513278   -0.336557
            33    0       5.101490      1.366180      1.161640     0.505887   -0.470023   -0.432541
            34    0       4.948340      1.412190      6.024780    -0.572380    0.351837   -0.408853
            35    0       4.112070      3.522300      1.431970    -0.767079    0.991727   -0.296922
            36    0       3.853870      3.714900      6.428890    -0.237809   -0.176631   -0.064670
            37    0       2.714200      5.900000      0.635400    -0.285246    0.196539    0.541115
            38    0       2.632030      6.001080      5.967460     0.158655   -0.093237    0.015470
            39    0       1.425490      8.141840      1.237900    -0.228963    0.038275    0.117925
            40    0       1.394560      8.251940      6.517030    -0.134279    0.709397   -0.385448
            41    0      10.462820      1.258270      1.705870     0.471479    0.032845   -0.321062
            42    0      10.198220      1.608490      6.524220     0.656266   -0.452210    0.140377
            43    0       2.498810      1.465760      1.249260     0.014444   -0.406656   -0.332679
            44    0       2.622400      1.519390      6.933490    -0.886858   -0.031746   -0.923007
            45    0       1.445070      3.885950      1.215110    -0.122761   -0.669031    0.079395
            46    0       1.149820      3.806900      6.120320     0.132640   -0.429254    0.097844
            47    0       0.052780      5.836510      0.977330     0.381682    0.735553    0.311413
            48    0      10.352120      6.286270      6.020400    -0.225759   -0.119662    0.214284
            49    0       9.336900      3.703510      1.279620     0.250857   -0.831163    0.575386
            50    0       8.990360      3.643820      5.921370     0.546780    0.247664    0.768612
            51    0       7.924800      5.555580      0.730720    -0.911127    0.845727    0.434686
            52    0       7.765840      5.872430      5.934560    -0.051344    0.352823    0.671509
            53    0       6.662780      8.329820      0.965470     0.065079   -0.776295    1.172234
            54    0       6.287380      8.720400      7.412620    -0.165011   -1.011075   -1.445906
            55    0       9.258230      7.942440      0.870800     0.072636    0.254618    1.043231
            56    0       8.753610      8.597160      6.644850     1.136525   -1.222225    0.163607
            57    0       8.058850      1.405520      1.527070    -0.065172    0.057937   -0.923717
            58    0       7.272220      1.242020      6.051340     1.485426    1.475834   -1.136310
            59    0       6.641790      3.549540      1.625540    -0.097355    0.248281   -0.423023
            60    0       6.614070      3.518750      6.863800    -0.175297   -0.206022   -0.226141
            61    0       5.194330      5.923900      1.243370     0.996037   -0.188190   -0.333789
            62    0       5.207110      5.787030      6.109630    -0.151702    0.272925   -0.710074
            63    0       4.046890      8.084110      1.554120    -0.298365    0.366742    0.102220
            64    0       3.964060      8.114990      6.387830    -0.207214    0.307351    0.265171
 Energy
        -63.376568030000
 PlusStress:  xx          yy          zz          yz          xz          xy
        30.48169    28.49405    28.51205    -3.02838    -0.02641    -0.36721
 Feature   EFS_by	VASP
END_CFG

BEGIN_CFG
 Size
    64
 Supercell
        10.560000      0.000000      0.000000
         0.000000      9.145228      0.000000
         0.000000      0.000000     10.300000
 AtomData:  id type       cartes_x      cartes_y      cartes_z           fx          fy          fz
             1    0       1.364270      5.219250      3.417240    -0.600862   -0.113275   -0.063978
             2    0       1.255900      5.428470      8.691530     0.276713   -0.692754   -0.300052
             3    0       0.219460      7.410150      3.241950    -1.025206    0.005194    0.381232
             4    0      10.401920      7.523590      8.841510    -0.889666   -0.305516   -0.686063
             5    0       6.344300      0.385330      4.144920    -0.304142    0.872313    0.095503
             6    0       6.652940      0.568040      8.944400    -0.172455    0.513443   -0.049219
             7    0       5.189590      3.027430      3.998770     0.341350    0.053189   -0.026804
             8    0       4.951720      3.031900      8.990420     1.477585   -0.823579    0.030238
             9    0       0.911720      0.457570      4.364050     0.372096    0.809304   -0.921724
            10    0       0.787560      0.421050      9.363640     0.883404    1.309812    0.162742
            11    0       0.125450      3.045110      3.863180    -0.021238   -0.043018   -0.226231
            12    0       0.043730      2.874400      8.868060     0.306822    0.757943   -0.224952
            13    0       3.522280      0.941640      4.040020     0.573524   -0.843611    0.031047
            14    0       4.014230      0.463610      8.735750    -0.324892    0.913802    0.041291
            15    0       2.720730      3.114010      3.405560    -0.461426    0.307075   -0.058478
            16    0       2.585880      2.920030      8.768030    -0.491221   -0.089072    0.179139
            17    0       6.215500      5.506730      4.090450     0.727297   -0.750114    0.259390
            18    0       6.749850      5.109960      9.006160    -0.877545   -0.112083    0.073438
            19    0       4.971340      7.499820      3.654720    -0.080463    1.255794   -0.303082
            20    0       5.142560      7.459380      9.191730     0.316136   -0.166716   -0.030441
            21    0       9.492390      5.520810      3.955840    -0.903411   -0.511091    0.072250
            22    0       9.157110      5.257490      8.753090     0.431217   -0.196264   -0.107354
            23    0       7.889310      7.744090      3.641070     0.661890   -0.709533    0.124014
            24    0       7.684410      7.440260      9.481400     0.731246    0.032582   -0.227670
            25    0       3.625480      5.581490      3.861790     0.539315   -0.657062    0.124103
            26    0       3.935460      5.231970      8.990030    -0.281012    0.432699   -0.008016
            27    0       2.328300      7.746420      4.554610     1.029282   -0.963735   -0.310653
            28    0       2.426030      7.668660      9.444370     0.333943   -0.096705   -0.086054
            29    0       9.168870      0.990760      3.864370    -0.447457   -0.272063    0.104086
            30    0       9.092790      1.054860      8.430580    -0.402762   -1.357121   -0.433213
            31    0       7.755150      3.404100      4.150280     0.001435   -0.218836   -0.506444
            32    0       8.166430      2.908450      9.608860    -1.130115    0.281890    0.224058
            33    0       5.364590      1.447630      1.922310    -1.131978    0.078430   -0.496067
            34    0       5.241730      1.473690      6.449270     0.071693    0.952195    0.211805
            35    0       4.116150      4.093790      1.237270     0.155400   -0.849150    0.013884
            36    0       4.118430      4.118120      6.096010    -0.472406   -0.719752    0.134740
            37    0       2.622630      6.049090      1.169450     0.217992    0.579105    0.219637
            38    0       2.753260      6.682380      6.886170    -0.434740   -0.927704    0.247705
            39    0       1.308120      8.608370      1.589520     1.124332   -0.005035   -0.721706
            40    0       1.465230      8.890240      6.719060    -0.380007   -1.272969    0.895902
            41    0      10.412980      1.515280      1.259250     0.659536    1.500791    0.278832
            42    0      10.331540      1.544130      6.210980    -0.052103    0.663854    0.492018
            43    0       2.843550      1.434370      1.234410    -0.140888    0.692342   -0.258386
            44    0       2.681150      1.732790      6.546390     0.682862    0.388015   -0.282053
            45    0       1.422160      3.811370      0.594570     0.479981   -0.427799    0.536466
            46    0       1.455590      3.816390      6.241600    -0.238316    0.428090    0.077461
            47    0       0.123430      6.100700      0.628590    -0.283273    0.277591    0.695627
            48    0       0.322950      6.112140      6.219530    -0.141836    0.095287    0.061976
            49    0       9.568650      3.846000      1.231490    -0.608469    0.330283    0.569874
            50    0       9.307780      3.851190      6.013790     0.389208   -0.101301    0.693852
            51    0       8.202070      6.059740      1.597790     0.630999   -0.034390    0.014667
            52    0       8.064220      5.971900      6.354920     0.219010   -0.676721    0.041359
            53    0       6.707010      8.463940      1.346080    -0.106990   -0.093330   -0.116126
            54    0       6.877200      7.947770      6.245540    -0.384550    1.107040   -0.000372
            55    0       9.393520      8.619090      1.155240    -1.167617   -1.419684   -0.180177
            56    0       9.457510      8.215940      6.312500    -0.292355    0.265249    0.043606
            57    0       7.728140      1.574590      1.978530     1.149049   -0.190829   -0.478424
            58    0       7.669020      1.361580      6.150830     0.764480   -0.117664    0.167662
            59    0       6.738830      3.704540      1.533440    -0.208803    0.611036   -0.245715
            60    0       6.737090      3.628840      6.786910    -0.321821    0.316314    0.074979
            61    0       5.795370      6.048900      1.382640    -1.086778    0.268000   -0.164800
            62    0       5.166050      6.174800      6.750510     1.061363   -0.467569    0.231478
            63    0       4.081700      8.369320      1.136160    -0.121062   -0.145340    0.219109
            64    0       4.389710      8.421850      6.260890    -0.621297    0.272723   -0.310916
 Energy
        -63.066576370000
 PlusStress:  xx          yy          zz          yz          xz          xy
        19.80115    24.48420     7.83590     0.50305     2.05794    -0.56597
 Feature   EFS_by	VASP
END_CFG

BEGIN_CFG
 Size
    64
 Supercell
        10.560000      0.000000      0.000000
         0.000000      9.145228      0.000000
         0.000000      0.000000     10.020000
 AtomData:  id type       cartes_x      cartes_y      cartes_z           fx          fy          fz
             1    0       1.276040      5.705700      4.042230     1.004282   -1.280306   -0.455320
             2    0       1.125670      5.257420      8.829980     0.317029   -0.561186   -0.149598
             3    0       0.039040      7.631790      3.701000    -0.048456    1.065280   -0.520752
             4    0      10.557570      7.594210      8.689420    -0.606167    0.052212    0.107940
             5    0       6.602040      0.581690      3.808650    -0.458801    0.811095   -0.155868
             6    0       6.354320      0.904990      8.876280     1.104392   -0.082129    0.083858
             7    0       5.465330      3.203700      3.405650    -0.237614    0.160602    0.528256
             8    0       5.449750      3.229180      8.291980    -1.304135   -0.778007    0.108557
             9    0       1.445830      0.903810      3.614730     0.085505   -0.039233    0.485643
            10    0       1.093770      0.690830      8.780630     0.177422    0.103300    0.252869
            11    0       0.186870      3.387230      3.876120    -0.215532   -0.597359   -0.711956
            12    0      10.416850      3.024660      8.655240    -0.023415    0.050415    0.154221
            13    0       3.923990      1.286030      3.595240     0.245255   -1.493479    0.311205
            14    0       3.996450      0.614380      8.903100    -1.223368    0.958640    0.073013
            15    0       2.764990      3.358050      3.352980    -0.323111    0.583860    0.275442
            16    0       2.544870      2.797960      8.560790    -0.083326    0.807802    0.193861
            17    0       6.671970      5.486680      3.735860    -0.345735   -0.169019   -0.251126
            18    0       6.619480      5.238840      8.912140    -0.205101    1.481748    0.952014
            19    0       5.447220      7.571440      4.371950    -0.349943    0.216788   -0.001937
            20    0       5.090510      7.656450      8.894390     0.874972   -0.981390    0.084345
            21    0       9.078470      5.404110      3.421030     0.748342    0.277950    0.322966