 running on    8 total cores
 distrk:  each k-point on    2 cores,    4 groups
 distr:  one band on    1 cores,    2 groups
 OpenACC runtime initialized ...    4 GPUs detected
 vasp.6.2.1 16May21 (build Jun 30 2023 13:57:28) complex                         
 POSCAR found :  1 types and      64 ions
 Reading from existing POTCAR
 scaLAPACK will be used selectively (only on CPU)
 -----------------------------------------------------------------------------
|                                                                             |
|           W    W    AA    RRRRR   N    N  II  N    N   GGGG   !!!           |
|           W    W   A  A   R    R  NN   N  II  NN   N  G    G  !!!           |
|           W    W  A    A  R    R  N N  N  II  N N  N  G       !!!           |
|           W WW W  AAAAAA  RRRRR   N  N N  II  N  N N  G  GGG   !            |
|           WW  WW  A    A  R   R   N   NN  II  N   NN  G    G                |
|           W    W  A    A  R    R  N    N  II  N    N   GGGG   !!!           |
|                                                                             |
|     For optimal performance we recommend to set                             |
|       NCORE = 2 up to number-of-cores-per-socket                            |
|     NCORE specifies how many cores store one orbital (NPAR=cpu/NCORE).      |
|     This setting can greatly improve the performance of VASP for DFT.       |
|     The default, NCORE=1 might be grossly inefficient on modern             |
|     multi-core architectures or massively parallel machines. Do your        |
|     own testing! More info at https://www.vasp.at/wiki/index.php/NCORE      |
|     Unfortunately you need to use the default for GW and RPA                |
|     calculations (for HF NCORE is supported but not extensively tested      |
|     yet).                                                                   |
|                                                                             |
 -----------------------------------------------------------------------------

 Reading from existing POTCAR
 -----------------------------------------------------------------------------
|                                                                             |
|               ----> ADVICE to this user running VASP <----                  |
|                                                                             |
|     You have a (more or less) 'large supercell' and for larger cells it     |
|     might be more efficient to use real-space projection operators.         |
|     Therefore, try LREAL= Auto in the INCAR file.                           |
|     Mind: If you want to do very accurate calculations, keep the            |
|     reciprocal projection scheme (i.e. LREAL=.FALSE.).                      |
|                                                                             |
 -----------------------------------------------------------------------------

 LDA part: xc-table for Pade appr. of Perdew
 POSCAR, INCAR and KPOINTS ok, starting setup
 FFT: planning ...
 WAVECAR not read
 entering main loop
       N       E                     dE             d eps       ncg     rms          rms(c)
DAV:   1     0.173702977155E+05    0.17370E+05   -0.85060E+05277312   0.279E+03
DAV:   2     0.166583983521E+04   -0.15704E+05   -0.15332E+05238048   0.800E+02
DAV:   3     0.247894557292E+02   -0.16411E+04   -0.15417E+04248024   0.230E+02
DAV:   4    -0.725254024584E+02   -0.97315E+02   -0.94828E+02252788   0.488E+01
DAV:   5    -0.741542027567E+02   -0.16288E+01   -0.16251E+01253176   0.684E+00
DAV:   6    -0.741987106588E+02   -0.44508E-01   -0.44505E-01250448   0.118E+00
DAV:   7    -0.742016778938E+02   -0.29672E-02   -0.29672E-02263976   0.293E-01    0.135E+01
DAV:   8    -0.685816864362E+02    0.56200E+01   -0.31836E+01242520   0.143E+01    0.674E+00
DAV:   9    -0.683673405407E+02    0.21435E+00   -0.11570E+00243368   0.280E+00    0.388E+00
DAV:  10    -0.682987061592E+02    0.68634E-01   -0.27163E-01243088   0.217E+00    0.435E-01
DAV:  11    -0.682973466220E+02    0.13595E-02   -0.53627E-02247208   0.121E+00    0.172E-01
DAV:  12    -0.682975994860E+02   -0.25286E-03   -0.73116E-03246816   0.208E-01    0.101E-01
DAV:  13    -0.682976104537E+02   -0.10968E-04   -0.13633E-03243672   0.155E-01    0.265E-02
DAV:  14    -0.682976092226E+02    0.12311E-05   -0.16534E-04247424   0.641E-02    0.157E-02
DAV:  15    -0.682976010999E+02    0.81226E-05   -0.40767E-05248976   0.249E-02    0.360E-03
DAV:  16    -0.682975986498E+02    0.24502E-05   -0.40082E-06219088   0.767E-03    0.158E-03
DAV:  17    -0.682975980614E+02    0.58833E-06   -0.53489E-07125264   0.323E-03
   1 F= -.68297598E+02 E0= -.68297550E+02  d E =-.194188E-03
 PROFILE, used timers:     256
srun: Job 11456381 step creation temporarily disabled, retrying (Requested nodes are busy)
srun: Step created for StepId=11456381.1
 running on    8 total cores
 distrk:  each k-point on    2 cores,    4 groups
 distr:  one band on    1 cores,    2 groups
 OpenACC runtime initialized ...    4 GPUs detected
 vasp.6.2.1 16May21 (build Jun 30 2023 13:57:28) complex                         
 POSCAR found :  1 types and      64 ions
 Reading from existing POTCAR
 scaLAPACK will be used selectively (only on CPU)
 -----------------------------------------------------------------------------
|                                                                             |
|           W    W    AA    RRRRR   N    N  II  N    N   GGGG   !!!           |
|           W    W   A  A   R    R  NN   N  II  NN   N  G    G  !!!           |
|           W    W  A    A  R    R  N N  N  II  N N  N  G       !!!           |
|           W WW W  AAAAAA  RRRRR   N  N N  II  N  N N  G  GGG   !            |
|           WW  WW  A    A  R   R   N   NN  II  N   NN  G    G                |
|           W    W  A    A  R    R  N    N  II  N    N   GGGG   !!!           |
|                                                                             |
|     For optimal performance we recommend to set                             |
|       NCORE = 2 up to number-of-cores-per-socket                            |
|     NCORE specifies how many cores store one orbital (NPAR=cpu/NCORE).      |
|     This setting can greatly improve the performance of VASP for DFT.       |
|     The default, NCORE=1 might be grossly inefficient on modern             |
|     multi-core architectures or massively parallel machines. Do your        |
|     own testing! More info at https://www.vasp.at/wiki/index.php/NCORE      |
|     Unfortunately you need to use the default for GW and RPA                |
|     calculations (for HF NCORE is supported but not extensively tested      |
|     yet).                                                                   |
|                                                                             |
 -----------------------------------------------------------------------------

 Reading from existing POTCAR
 -----------------------------------------------------------------------------
|                                                                             |
|               ----> ADVICE to this user running VASP <----                  |
|                                                                             |
|     You have a (more or less) 'large supercell' and for larger cells it     |
|     might be more efficient to use real-space projection operators.         |
|     Therefore, try LREAL= Auto in the INCAR file.                           |
|     Mind: If you want to do very accurate calculations, keep the            |
|     reciprocal projection scheme (i.e. LREAL=.FALSE.).                      |
|                                                                             |
 -----------------------------------------------------------------------------

 LDA part: xc-table for Pade appr. of Perdew
 POSCAR, INCAR and KPOINTS ok, starting setup
 FFT: planning ...
 WAVECAR not read
 entering main loop
       N       E                     dE             d eps       ncg     rms          rms(c)
DAV:   1     0.174226759426E+05    0.17423E+05   -0.84944E+05277344   0.280E+03
DAV:   2     0.167595423389E+04   -0.15747E+05   -0.15374E+05238048   0.802E+02
DAV:   3     0.255676667967E+02   -0.16504E+04   -0.15502E+04247912   0.231E+02
DAV:   4    -0.722164666738E+02   -0.97784E+02   -0.95290E+02252920   0.490E+01
DAV:   5    -0.738446823889E+02   -0.16282E+01   -0.16244E+01252248   0.683E+00
DAV:   6    -0.738896500056E+02   -0.44968E-01   -0.44964E-01250408   0.119E+00
DAV:   7    -0.738926750449E+02   -0.30250E-02   -0.30250E-02263496   0.298E-01    0.134E+01
DAV:   8    -0.682795708567E+02    0.56131E+01   -0.31475E+01242632   0.142E+01    0.677E+00
DAV:   9    -0.680609159255E+02    0.21865E+00   -0.11369E+00243496   0.268E+00    0.390E+00
DAV:  10    -0.679880352636E+02    0.72881E-01   -0.25625E-01243080   0.189E+00    0.365E-01
DAV:  11    -0.679879277167E+02    0.10755E-03   -0.46160E-02249672   0.106E+00    0.157E-01
DAV:  12    -0.679881079583E+02   -0.18024E-03   -0.48906E-03246312   0.205E-01    0.844E-02
DAV:  13    -0.679881779970E+02   -0.70039E-04   -0.90735E-04247256   0.106E-01    0.235E-02
DAV:  14    -0.679881673197E+02    0.10677E-04   -0.10862E-04246152   0.604E-02    0.133E-02
DAV:  15    -0.679881634043E+02    0.39154E-05   -0.31536E-05248624   0.187E-02    0.454E-03
DAV:  16    -0.679881583169E+02    0.50874E-05   -0.30040E-06166592   0.478E-03    0.130E-03
DAV:  17    -0.679881587584E+02   -0.44152E-06   -0.30270E-07125400   0.256E-03
   1 F= -.67988159E+02 E0= -.67988290E+02  d E =0.523342E-03
 PROFILE, used timers:     256
srun: Job 11456381 step creation temporarily disabled, retrying (Requested nodes are busy)
srun: Step created for StepId=11456381.2
 running on    8 total cores
 distrk:  each k-point on    2 cores,    4 groups
 distr:  one band on    1 cores,    2 groups
 OpenACC runtime initialized ...    4 GPUs detected
 vasp.6.2.1 16May21 (build Jun 30 2023 13:57:28) complex                         
 POSCAR found :  1 types and      64 ions
 Reading from existing POTCAR
 scaLAPACK will be used selectively (only on CPU)
 -----------------------------------------------------------------------------
|                                                                             |
|           W    W    AA    RRRRR   N    N  II  N    N   GGGG   !!!           |
|           W    W   A  A   R    R  NN   N  II  NN   N  G    G  !!!           |
|           W    W  A    A  R    R  N N  N  II  N N  N  G       !!!           |
|           W WW W  AAAAAA  RRRRR   N  N N  II  N  N N  G  GGG   !            |
|           WW  WW  A    A  R   R   N   NN  II  N   NN  G    G                |
|           W    W  A    A  R    R  N    N  II  N    N   GGGG   !!!           |
|                                                                             |
|     For optimal performance we recommend to set                             |
|       NCORE = 2 up to number-of-cores-per-socket                            |
|     NCORE specifies how many cores store one orbital (NPAR=cpu/NCORE).      |
|     This setting can greatly improve the performance of VASP for DFT.       |
|     The default, NCORE=1 might be grossly inefficient on modern             |
|     multi-core architectures or massively parallel machines. Do your        |
|     own testing! More info at https://www.vasp.at/wiki/index.php/NCORE      |
|     Unfortunately you need to use the default for GW and RPA                |
|     calculations (for HF NCORE is supported but not extensively tested      |
|     yet).                                                                   |
|                                                                             |
 -----------------------------------------------------------------------------

 Reading from existing POTCAR
 -----------------------------------------------------------------------------
|                                                                             |
|               ----> ADVICE to this user running VASP <----                  |
|                                                                             |
|     You have a (more or less) 'large supercell' and for larger cells it     |
|     might be more efficient to use real-space projection operators.         |
|     Therefore, try LREAL= Auto in the INCAR file.                           |
|     Mind: If you want to do very accurate calculations, keep the            |
|     reciprocal projection scheme (i.e. LREAL=.FALSE.).                      |
|                                                                             |
 -----------------------------------------------------------------------------

 LDA part: xc-table for Pade appr. of Perdew
 POSCAR, INCAR and KPOINTS ok, starting setup
 FFT: planning ...
 WAVECAR not read
 entering main loop
       N       E                     dE             d eps       ncg     rms          rms(c)
DAV:   1     0.173942620248E+05    0.17394E+05   -0.84985E+05277376   0.280E+03
DAV:   2     0.167038557064E+04   -0.15724E+05   -0.15351E+05238048   0.801E+02
DAV:   3     0.255666129055E+02   -0.16448E+04   -0.15455E+04247928   0.230E+02
DAV:   4    -0.722359319644E+02   -0.97803E+02   -0.95264E+02252648   0.489E+01
DAV:   5    -0.738913663839E+02   -0.16554E+01   -0.16514E+01252760   0.684E+00
DAV:   6    -0.739359389618E+02   -0.44573E-01   -0.44569E-01250024   0.118E+00
DAV:   7    -0.739388980791E+02   -0.29591E-02   -0.29591E-02262912   0.294E-01    0.133E+01
DAV:   8    -0.683786680788E+02    0.55602E+01   -0.31287E+01242648   0.141E+01    0.674E+00
DAV:   9    -0.681639262825E+02    0.21474E+00   -0.11213E+00243336   0.270E+00    0.388E+00
DAV:  10    -0.680926893252E+02    0.71237E-01   -0.25880E-01243056   0.202E+00    0.391E-01
DAV:  11    -0.680921035368E+02    0.58579E-03   -0.47904E-02246528   0.113E+00    0.162E-01
DAV:  12    -0.680923258114E+02   -0.22227E-03   -0.57853E-03248360   0.194E-01    0.893E-02
DAV:  13    -0.680923753152E+02   -0.49504E-04   -0.92612E-04244896   0.126E-01    0.245E-02
DAV:  14    -0.680923697268E+02    0.55884E-05   -0.12979E-04245720   0.637E-02    0.137E-02
DAV:  15    -0.680923647092E+02    0.50177E-05   -0.34050E-05249568   0.198E-02    0.412E-03
DAV:  16    -0.680923606730E+02    0.40362E-05   -0.28297E-06166712   0.620E-03    0.144E-03
DAV:  17    -0.680923604009E+02    0.27208E-06   -0.46452E-07125240   0.346E-03
   1 F= -.68092360E+02 E0= -.68092601E+02  d E =0.962549E-03
 PROFILE, used timers:     256
 running on    8 total cores
 distrk:  each k-point on    2 cores,    4 groups
 distr:  one band on    1 cores,    2 groups
 OpenACC runtime initialized ...    4 GPUs detected
 vasp.6.2.1 16May21 (build Jun 30 2023 13:57:28) complex                         
 POSCAR found :  1 types and      64 ions
 Reading from existing POTCAR
 scaLAPACK will be used selectively (only on CPU)
 -----------------------------------------------------------------------------
|                                                                             |
|           W    W    AA    RRRRR   N    N  II  N    N   GGGG   !!!           |
|           W    W   A  A   R    R  NN   N  II  NN   N  G    G  !!!           |
|           W    W  A    A  R    R  N N  N  II  N N  N  G       !!!           |
|           W WW W  AAAAAA  RRRRR   N  N N  II  N  N N  G  GGG   !            |
|           WW  WW  A    A  R   R   N   NN  II  N   NN  G    G                |
|           W    W  A    A  R    R  N    N  II  N    N   GGGG   !!!           |
|                                                                             |
|     For optimal performance we recommend to set                             |
|       NCORE = 2 up to number-of-cores-per-socket                            |
|     NCORE specifies how many cores store one orbital (NPAR=cpu/NCORE).      |
|     This setting can greatly improve the performance of VASP for DFT.       |
|     The default, NCORE=1 might be grossly inefficient on modern             |
|     multi-core architectures or massively parallel machines. Do your        |
|     own testing! More info at https://www.vasp.at/wiki/index.php/NCORE      |
|     Unfortunately you need to use the default for GW and RPA                |
|     calculations (for HF NCORE is supported but not extensively tested      |
|     yet).                                                                   |
|                                                                             |
 -----------------------------------------------------------------------------

 Reading from existing POTCAR
 -----------------------------------------------------------------------------
|                                                                             |
|               ----> ADVICE to this user running VASP <----                  |
|                                                                             |
|     You have a (more or less) 'large supercell' and for larger cells it     |
|     might be more efficient to use real-space projection operators.         |
|     Therefore, try LREAL= Auto in the INCAR file.                           |
|     Mind: If you want to do very accurate calculations, keep the            |
|     reciprocal projection scheme (i.e. LREAL=.FALSE.).                      |
|                                                                             |
 -----------------------------------------------------------------------------

 LDA part: xc-table for Pade appr. of Perdew
 POSCAR, INCAR and KPOINTS ok, starting setup
 FFT: planning ...
 WAVECAR not read
 entering main loop
       N       E                     dE             d eps       ncg     rms          rms(c)
DAV:   1     0.177402316999E+05    0.17740E+05   -0.84343E+05276560   0.284E+03
DAV:   2     0.173898108190E+04   -0.16001E+05   -0.15619E+05238048   0.815E+02
DAV:   3     0.287923200478E+02   -0.17102E+04   -0.16074E+04247656   0.235E+02
DAV:   4    -0.723190223256E+02   -0.10111E+03   -0.98569E+02253012   0.504E+01
DAV:   5    -0.740026035428E+02   -0.16836E+01   -0.16796E+01252272   0.692E+00
DAV:   6    -0.740476129227E+02   -0.45009E-01   -0.45005E-01250000   0.119E+00
DAV:   7    -0.740505927612E+02   -0.29798E-02   -0.29798E-02262568   0.298E-01    0.140E+01
DAV:   8    -0.679933575063E+02    0.60572E+01   -0.33488E+01242736   0.148E+01    0.680E+00
DAV:   9    -0.677563578915E+02    0.23700E+00   -0.12094E+00243488   0.283E+00    0.390E+00
DAV:  10    -0.676777452977E+02    0.78613E-01   -0.26057E-01243376   0.208E+00    0.393E-01
DAV:  11    -0.676772199199E+02    0.52538E-03   -0.52892E-02246328   0.120E+00    0.159E-01
DAV:  12    -0.676773601573E+02   -0.14024E-03   -0.60182E-03246936   0.212E-01    0.871E-02
DAV:  13    -0.676774174948E+02   -0.57337E-04   -0.92226E-04246336   0.124E-01    0.266E-02
DAV:  14    -0.676774097631E+02    0.77317E-05   -0.13084E-04245752   0.662E-02    0.147E-02
DAV:  15    -0.676774032948E+02    0.64683E-05   -0.37513E-05250232   0.209E-02    0.413E-03
DAV:  16    -0.676773990320E+02    0.42628E-05   -0.29958E-06165800   0.661E-03    0.164E-03
DAV:  17    -0.676773986041E+02    0.42796E-06   -0.52699E-07125424   0.361E-03
   1 F= -.67677399E+02 E0= -.67677365E+02  d E =-.135200E-03
 PROFILE, used timers:     256
 running on    8 total cores
 distrk:  each k-point on    2 cores,    4 groups
 distr:  one band on    1 cores,    2 groups
 OpenACC runtime initialized ...    4 GPUs detected
 vasp.6.2.1 16May21 (build Jun 30 2023 13:57:28) complex                         
 POSCAR found :  1 types and      64 ions
 Reading from existing POTCAR
 scaLAPACK will be used selectively (only on CPU)
 -----------------------------------------------------------------------------
|                                                                             |
|           W    W    AA    RRRRR   N    N  II  N    N   GGGG   !!!           |
|           W    W   A  A   R    R  NN   N  II  NN   N  G    G  !!!           |
|           W    W  A    A  R    R  N N  N  II  N N  N  G       !!!           |
|           W WW W  AAAAAA  RRRRR   N  N N  II  N  N N  G  GGG   !            |
|           WW  WW  A    A  R   R   N   NN  II  N   NN  G    G                |
|           W    W  A    A  R    R  N    N  II  N    N   GGGG   !!!           |
|                                                                             |
|     For optimal performance we recommend to set                             |
|       NCORE = 2 up to number-of-cores-per-socket                            |
|     NCORE specifies how many cores store one orbital (NPAR=cpu/NCORE).      |
|     This setting can greatly improve the performance of VASP for DFT.       |
|     The default, NCORE=1 might be grossly inefficient on modern             |
|     multi-core architectures or massively parallel machines. Do your        |
|     own testing! More info at https://www.vasp.at/wiki/index.php/NCORE      |
|     Unfortunately you need to use the default for GW and RPA                |
|     calculations (for HF NCORE is supported but not extensively tested      |
|     yet).                                                                   |
|                                                                             |
 -----------------------------------------------------------------------------

 Reading from existing POTCAR
 -----------------------------------------------------------------------------
|                                                                             |
|               ----> ADVICE to this user running VASP <----                  |
|                                                                             |
|     You have a (more or less) 'large supercell' and for larger cells it     |
|     might be more efficient to use real-space projection operators.         |
|     Therefore, try LREAL= Auto in the INCAR file.                           |
|     Mind: If you want to do very accurate calculations, keep the            |
|     reciprocal projection scheme (i.e. LREAL=.FALSE.).                      |
|                                                                             |
 -----------------------------------------------------------------------------

 LDA part: xc-table for Pade appr. of Perdew
 POSCAR, INCAR and KPOINTS ok, starting setup
 FFT: planning ...
 WAVECAR not read
 entering main loop
       N       E                     dE             d eps       ncg     rms          rms(c)
DAV:   1     0.173141327213E+05    0.17314E+05   -0.85168E+05277496   0.279E+03
DAV:   2     0.165473600801E+04   -0.15659E+05   -0.15289E+05238048   0.798E+02
DAV:   3     0.251055361894E+02   -0.16296E+04   -0.15312E+04247920   0.229E+02
DAV:   4    -0.717060556404E+02   -0.96812E+02   -0.94335E+02252788   0.487E+01
DAV:   5    -0.733187846221E+02   -0.16127E+01   -0.16089E+01251304   0.682E+00
DAV:   6    -0.733656831561E+02   -0.46899E-01   -0.46895E-01250072   0.123E+00
DAV:   7    -0.733689023373E+02   -0.32192E-02   -0.32191E-02265560   0.310E-01    0.134E+01
DAV:   8    -0.678314462290E+02    0.55375E+01   -0.31119E+01242560   0.141E+01    0.677E+00
DAV:   9    -0.676142044823E+02    0.21724E+00   -0.11490E+00243536   0.274E+00    0.390E+00
DAV:  10    -0.675429807978E+02    0.71224E-01   -0.27095E-01243048   0.209E+00    0.401E-01
DAV:  11    -0.675425404794E+02    0.44032E-03   -0.56596E-02246664   0.122E+00    0.164E-01
DAV:  12    -0.675427507922E+02   -0.21031E-03   -0.62629E-03244976   0.218E-01    0.892E-02
DAV:  13    -0.675428433327E+02   -0.92540E-04   -0.98913E-04246424   0.122E-01    0.281E-02
DAV:  14    -0.675428362136E+02    0.71191E-05   -0.13761E-04248432   0.653E-02    0.156E-02
DAV:  15    -0.675428311873E+02    0.50263E-05   -0.43741E-05250152   0.213E-02    0.506E-03
DAV:  16    -0.675428266278E+02    0.45594E-05   -0.37921E-06185648   0.687E-03    0.153E-03
DAV:  17    -0.675428261985E+02    0.42931E-06   -0.50869E-07125240   0.348E-03
   1 F= -.67542826E+02 E0= -.67542854E+02  d E =0.109288E-03
 PROFILE, used timers:     256
srun: Job 11456381 step creation temporarily disabled, retrying (Requested nodes are busy)
srun: Step created for StepId=11456381.5
 running on    8 total cores
 distrk:  each k-point on    2 cores,    4 groups
 distr:  one band on    1 cores,    2 groups
 OpenACC runtime initialized ...    4 GPUs detected
 vasp.6.2.1 16May21 (build Jun 30 2023 13:57:28) complex                         
 POSCAR found :  1 types and      64 ions
 Reading from existing POTCAR
 scaLAPACK will be used selectively (only on CPU)
 -----------------------------------------------------------------------------
|                                                                             |
|           W    W    AA    RRRRR   N    N  II  N    N   GGGG   !!!           |
|           W    W   A  A   R    R  NN   N  II  NN   N  G    G  !!!           |
|           W    W  A    A  R    R  N N  N  II  N N  N  G       !!!           |
|           W WW W  AAAAAA  RRRRR   N  N N  II  N  N N  G  GGG   !            |
|           WW  WW  A    A  R   R   N   NN  II  N   NN  G    G                |
|           W    W  A    A  R    R  N    N  II  N    N   GGGG   !!!           |
|                                                                             |
|     For optimal performance we recommend to set                             |
|       NCORE = 2 up to number-of-cores-per-socket                            |
|     NCORE specifies how many cores store one orbital (NPAR=cpu/NCORE).      |
|     This setting can greatly improve the performance of VASP for DFT.       |
|     The default, NCORE=1 might be grossly inefficient on modern             |
|     multi-core architectures or massively parallel machines. Do your        |
|     own testing! More info at https://www.vasp.at/wiki/index.php/NCORE      |
|     Unfortunately you need to use the default for GW and RPA                |
|     calculations (for HF NCORE is supported but not extensively tested      |
|     yet).                                                                   |
|                                                                             |
 -----------------------------------------------------------------------------

 Reading from existing POTCAR
 -----------------------------------------------------------------------------
|                                                                             |
|               ----> ADVICE to this user running VASP <----                  |
|                                                                             |
|     You have a (more or less) 'large supercell' and for larger cells it     |
|     might be more efficient to use real-space projection operators.         |
|     Therefore, try LREAL= Auto in the INCAR file.                           |
|     Mind: If you want to do very accurate calculations, keep the            |
|     reciprocal projection scheme (i.e. LREAL=.FALSE.).                      |
|                                                                             |
 -----------------------------------------------------------------------------

 LDA part: xc-table for Pade appr. of Perdew
 POSCAR, INCAR and KPOINTS ok, starting setup
 FFT: planning ...
 WAVECAR not read
 entering main loop
       N       E                     dE             d eps       ncg     rms          rms(c)
DAV:   1     0.175799404586E+05    0.17580E+05   -0.84627E+05276992   0.282E+03
DAV:   2     0.170680244751E+04   -0.15873E+05   -0.15496E+05238048   0.808E+02
DAV:   3     0.274810963655E+02   -0.16793E+04   -0.15779E+04247640   0.233E+02
DAV:   4    -0.723571685460E+02   -0.99838E+02   -0.97250E+02252828   0.497E+01
DAV:   5    -0.740454702443E+02   -0.16883E+01   -0.16842E+01252552   0.689E+00
DAV:   6    -0.740903553838E+02   -0.44885E-01   -0.44881E-01249736   0.118E+00
DAV:   7    -0.740933271004E+02   -0.29717E-02   -0.29717E-02262368   0.296E-01    0.136E+01
DAV:   8    -0.682829514545E+02    0.58104E+01   -0.32334E+01242704   0.145E+01    0.677E+00
DAV:   9    -0.680567342351E+02    0.22622E+00   -0.11634E+00243496   0.280E+00    0.390E+00
DAV:  10    -0.679805598184E+02    0.76174E-01   -0.26506E-01243112   0.215E+00    0.411E-01
DAV:  11    -0.679797804901E+02    0.77933E-03   -0.53377E-02248720   0.120E+00    0.166E-01
DAV:  12    -0.679799504839E+02   -0.16999E-03   -0.63260E-03251336   0.198E-01    0.923E-02
DAV:  13    -0.679799910425E+02   -0.40559E-04   -0.98247E-04244696   0.135E-01    0.259E-02
DAV:  14    -0.679799869407E+02    0.41018E-05   -0.14140E-04247288   0.640E-02    0.135E-02
DAV:  15    -0.679799812187E+02    0.57220E-05   -0.33538E-05249312   0.206E-02    0.439E-03
DAV:  16    -0.679799771360E+02    0.40827E-05   -0.34133E-06172928   0.723E-03    0.162E-03
DAV:  17    -0.679799765877E+02    0.54827E-06   -0.56350E-07125328   0.350E-03
   1 F= -.67979977E+02 E0= -.67980134E+02  d E =0.628835E-03
 PROFILE, used timers:     256
srun: Job 11456381 step creation temporarily disabled, retrying (Requested nodes are busy)
srun: Step created for StepId=11456381.6
 running on    8 total cores
 distrk:  each k-point on    2 cores,    4 groups
 distr:  one band on    1 cores,    2 groups
 OpenACC runtime initialized ...    4 GPUs detected
 vasp.6.2.1 16May21 (build Jun 30 2023 13:57:28) complex                         
 POSCAR found :  1 types and      64 ions
 Reading from existing POTCAR
 scaLAPACK will be used selectively (only on CPU)
 -----------------------------------------------------------------------------
|                                                                             |
|           W    W    AA    RRRRR   N    N  II  N    N   GGGG   !!!           |
|           W    W   A  A   R    R  NN   N  II  NN   N  G    G  !!!           |
|           W    W  A    A  R    R  N N  N  II  N N  N  G       !!!           |
|           W WW W  AAAAAA  RRRRR   N  N N  II  N  N N  G  GGG   !            |
|           WW  WW  A    A  R   R   N   NN  II  N   NN  G    G                |
|           W    W  A    A  R    R  N    N  II  N    N   GGGG   !!!           |
|                                                                             |
|     For optimal performance we recommend to set                             |
|       NCORE = 2 up to number-of-cores-per-socket                            |
|     NCORE specifies how many cores store one orbital (NPAR=cpu/NCORE).      |
|     This setting can greatly improve the performance of VASP for DFT.       |
|     The default, NCORE=1 might be grossly inefficient on modern             |
|     multi-core architectures or massively parallel machines. Do your        |
|     own testing! More info at https://www.vasp.at/wiki/index.php/NCORE      |
|     Unfortunately you need to use the default for GW and RPA                |
|     calculations (for HF NCORE is supported but not extensively tested      |
|     yet).                                                                   |
|                                                                             |
 -----------------------------------------------------------------------------

 Reading from existing POTCAR
 -----------------------------------------------------------------------------
|                                                                             |
|               ----> ADVICE to this user running VASP <----                  |
|                                                                             |
|     You have a (more or less) 'large supercell' and for larger cells it     |
|     might be more efficient to use real-space projection operators.         |
|     Therefore, try LREAL= Auto in the INCAR file.                           |
|     Mind: If you want to do very accurate calculations, keep the            |
|     reciprocal projection scheme (i.e. LREAL=.FALSE.).                      |
|                                                                             |
 -----------------------------------------------------------------------------

 LDA part: xc-table for Pade appr. of Perdew
 POSCAR, INCAR and KPOINTS ok, starting setup
 FFT: planning ...
 WAVECAR not read
 entering main loop
       N       E                     dE             d eps       ncg     rms          rms(c)
DAV:   1     0.176768903272E+05    0.17677E+05   -0.84460E+05276608   0.283E+03
DAV:   2     0.172608388718E+04   -0.15951E+05   -0.15570E+05238048   0.812E+02
DAV:   3     0.283423237789E+02   -0.16977E+04   -0.15961E+04247656   0.234E+02
DAV:   4    -0.721482401315E+02   -0.10049E+03   -0.97929E+02252940   0.501E+01
DAV:   5    -0.738321011163E+02   -0.16839E+01   -0.16799E+01252648   0.691E+00
DAV:   6    -0.738769156060E+02   -0.44814E-01   -0.44811E-01249768   0.118E+00
DAV:   7    -0.738798856232E+02   -0.29700E-02   -0.29700E-02262496   0.296E-01    0.139E+01
DAV:   8    -0.679148575691E+02    0.59650E+01   -0.33089E+01242592   0.147E+01    0.677E+00
DAV:   9    -0.676812059704E+02    0.23365E+00   -0.11860E+00243448   0.277E+00    0.388E+00
DAV:  10    -0.676031977642E+02    0.78008E-01   -0.25454E-01243400   0.198E+00    0.373E-01
DAV:  11    -0.676030111548E+02    0.18661E-03   -0.48774E-02247264   0.113E+00    0.158E-01
DAV:  12    -0.676031584520E+02   -0.14730E-03   -0.53731E-03245680   0.209E-01    0.858E-02
DAV:  13    -0.676032169680E+02   -0.58516E-04   -0.88400E-04245624   0.112E-01    0.241E-02
DAV:  14    -0.676032074456E+02    0.95224E-05   -0.11583E-04246104   0.640E-02    0.132E-02
DAV:  15    -0.676032020791E+02    0.53665E-05   -0.30096E-05249448   0.184E-02    0.407E-03
DAV:  16    -0.676031971488E+02    0.49303E-05   -0.26954E-06160616   0.516E-03    0.136E-03
DAV:  17    -0.676031975072E+02   -0.35844E-06   -0.43626E-07125368   0.321E-03
   1 F= -.67603198E+02 E0= -.67603255E+02  d E =0.230380E-03
 PROFILE, used timers:     256
srun: Job 11456381 step creation temporarily disabled, retrying (Requested nodes are busy)
srun: Step created for StepId=11456381.7
 running on    8 total cores
 distrk:  each k-point on    2 cores,    4 groups
 distr:  one band on    1 cores,    2 groups
 OpenACC runtime initialized ...    4 GPUs detected
 vasp.6.2.1 16May21 (build Jun 30 2023 13:57:28) complex                         
 POSCAR found :  1 types and      64 ions
 Reading from existing POTCAR
 scaLAPACK will be used selectively (only on CPU)
 -----------------------------------------------------------------------------
|                                                                             |
|           W    W    AA    RRRRR   N    N  II  N    N   GGGG   !!!           |
|           W    W   A  A   R    R  NN   N  II  NN   N  G    G  !!!           |
|           W    W  A    A  R    R  N N  N  II  N N  N  G       !!!           |
|           W WW W  AAAAAA  RRRRR   N  N N  II  N  N N  G  GGG   !            |
|           WW  WW  A    A  R   R   N   NN  II  N   NN  G    G                |
|           W    W  A    A  R    R  N    N  II  N    N   GGGG   !!!           |
|                                                                             |
|     For optimal performance we recommend to set                             |
|       NCORE = 2 up to number-of-cores-per-socket                            |
|     NCORE specifies how many cores store one orbital (NPAR=cpu/NCORE).      |
|     This setting can greatly improve the performance of VASP for DFT.       |
|     The default, NCORE=1 might be grossly inefficient on modern             |
|     multi-core architectures or massively parallel machines. Do your        |
|     own testing! More info at https://www.vasp.at/wiki/index.php/NCORE      |
|     Unfortunately you need to use the default for GW and RPA                |
|     calculations (for HF NCORE is supported but not extensively tested      |
|     yet).                                                                   |
|                                                                             |
 -----------------------------------------------------------------------------

 Reading from existing POTCAR
 -----------------------------------------------------------------------------
|                                                                             |
|               ----> ADVICE to this user running VASP <----                  |
|                                                                             |
|     You have a (more or less) 'large supercell' and for larger cells it     |
|     might be more efficient to use real-space projection operators.         |
|     Therefore, try LREAL= Auto in the INCAR file.                           |
|     Mind: If you want to do very accurate calculations, keep the            |
|     reciprocal projection scheme (i.e. LREAL=.FALSE.).                      |
|                                                                             |
 -----------------------------------------------------------------------------

 LDA part: xc-table for Pade appr. of Perdew
 POSCAR, INCAR and KPOINTS ok, starting setup
 FFT: planning ...
 WAVECAR not read
 entering main loop
       N       E                     dE             d eps       ncg     rms          rms(c)
DAV:   1     0.177939288615E+05    0.17794E+05   -0.84219E+05276376   0.284E+03
DAV:   2     0.175079316608E+04   -0.16043E+05   -0.15659E+05238048   0.817E+02
DAV:   3     0.298035432432E+02   -0.17210E+04   -0.16175E+04247656   0.236E+02
DAV:   4    -0.720742599533E+02   -0.10188E+03   -0.99314E+02253032   0.507E+01
DAV:   5    -0.737683794055E+02   -0.16941E+01   -0.16901E+01252464   0.694E+00
DAV:   6    -0.738130378910E+02   -0.44658E-01   -0.44654E-01249776   0.118E+00
DAV:   7    -0.738159925628E+02   -0.29547E-02   -0.29546E-02262144   0.296E-01    0.141E+01
DAV:   8    -0.676836558795E+02    0.61323E+01   -0.33790E+01242656   0.149E+01    0.680E+00
DAV:   9    -0.674428155048E+02    0.24084E+00   -0.12141E+00243520   0.281E+00    0.390E+00
DAV:  10    -0.673624225516E+02    0.80393E-01   -0.25609E-01243248   0.196E+00    0.370E-01
DAV:  11    -0.673621990490E+02    0.22350E-03   -0.48883E-02246920   0.113E+00    0.156E-01
DAV:  12    -0.673622938355E+02   -0.94787E-04   -0.52725E-03246656   0.217E-01    0.840E-02
DAV:  13    -0.673623563492E+02   -0.62514E-04   -0.88954E-04247448   0.108E-01    0.245E-02
DAV:  14    -0.673623459061E+02    0.10443E-04   -0.11567E-04245752   0.627E-02    0.137E-02
DAV:  15    -0.673623405664E+02    0.53397E-05   -0.31661E-05248432   0.192E-02    0.433E-03
DAV:  16    -0.673623352754E+02    0.52910E-05   -0.28611E-06164688   0.509E-03    0.148E-03
DAV:  17    -0.673623356051E+02   -0.32969E-06   -0.37832E-07125344   0.301E-03
   1 F= -.67362336E+02 E0= -.67362596E+02  d E =0.104248E-02
 PROFILE, used timers:     256
srun: Job 11456381 step creation temporarily disabled, retrying (Requested nodes are busy)
srun: Step created for StepId=11456381.8
 running on    8 total cores
 distrk:  each k-point on    2 cores,    4 groups
 distr:  one band on    1 cores,    2 groups
 OpenACC runtime initialized ...    4 GPUs detected
 vasp.6.2.1 16May21 (build Jun 30 2023 13:57:28) complex                         
 POSCAR found :  1 types and      64 ions
 Reading from existing POTCAR
 scaLAPACK will be used selectively (only on CPU)
 -----------------------------------------------------------------------------
|                                                                             |
|           W    W    AA    RRRRR   N    N  II  N    N   GGGG   !!!           |
|           W    W   A  A   R    R  NN   N  II  NN   N  G    G  !!!           |
|           W    W  A    A  R    R  N N  N  II  N N  N  G       !!!           |
|           W WW W  AAAAAA  RRRRR   N  N N  II  N  N N  G  GGG   !            |
|           WW  WW  A    A  R   R   N   NN  II  N   NN  G    G                |
|           W    W  A    A  R    R  N    N  II  N    N   GGGG   !!!           |
|                                                                             |
|     For optimal performance we recommend to set                             |
|       NCORE = 2 up to number-of-cores-per-socket                            |
|     NCORE specifies how many cores store one orbital (NPAR=cpu/NCORE).      |
|     This setting can greatly improve the performance of VASP for DFT.       |
|     The default, NCORE=1 might be grossly inefficient on modern             |
|     multi-core architectures or massively parallel machines. Do your        |
|     own testing! More info at https://www.vasp.at/wiki/index.php/NCORE      |
|     Unfortunately you need to use the default for GW and RPA                |
|     calculations (for HF NCORE is supported but not extensively tested      |
|     yet).                                                                   |
|                                                                             |
 -----------------------------------------------------------------------------

 Reading from existing POTCAR
 -----------------------------------------------------------------------------
|                                                                             |
|               ----> ADVICE to this user running VASP <----                  |
|                                                                             |
|     You have a (more or less) 'large supercell' and for larger cells it     |
|     might be more efficient to use real-space projection operators.         |
|     Therefore, try LREAL= Auto in the INCAR file.                           |
|     Mind: If you want to do very accurate calculations, keep the            |
|     reciprocal projection scheme (i.e. LREAL=.FALSE.).                      |
|                                                                             |
 -----------------------------------------------------------------------------

 LDA part: xc-table for Pade appr. of Perdew
 POSCAR, INCAR and KPOINTS ok, starting setup
 FFT: planning ...
 WAVECAR not read
 entering main loop
       N       E                     dE             d eps       ncg     rms          rms(c)
DAV:   1     0.174788010653E+05    0.17479E+05   -0.84855E+05277424   0.281E+03
DAV:   2     0.168874115143E+04   -0.15790E+05   -0.15415E+05238048   0.804E+02
DAV:   3     0.266063340028E+02   -0.16621E+04   -0.15612E+04247952   0.232E+02
DAV:   4    -0.721054695601E+02   -0.98712E+02   -0.96202E+02252664   0.494E+01
DAV:   5    -0.737413400794E+02   -0.16359E+01   -0.16321E+01252208   0.687E+00
DAV:   6    -0.737868779959E+02   -0.45538E-01   -0.45534E-01250088   0.120E+00
DAV:   7    -0.737899531281E+02   -0.30751E-02   -0.30751E-02264148   0.302E-01    0.137E+01
DAV:   8    -0.680288795455E+02    0.57611E+01   -0.32280E+01242688   0.144E+01    0.676E+00
DAV:   9    -0.678038324034E+02    0.22505E+00   -0.11781E+00243400   0.278E+00    0.389E+00
DAV:  10    -0.677297885318E+02    0.74044E-01   -0.26596E-01243352   0.204E+00    0.398E-01
DAV:  11    -0.677292438679E+02    0.54466E-03   -0.52261E-02248392   0.116E+00    0.163E-01
DAV:  12    -0.677294266575E+02   -0.18279E-03   -0.60314E-03247008   0.198E-01    0.909E-02
DAV:  13    -0.677294754519E+02   -0.48794E-04   -0.98831E-04245328   0.120E-01    0.256E-02
DAV:  14    -0.677294687454E+02    0.67065E-05   -0.12493E-04246984   0.607E-02    0.149E-02
DAV:  15    -0.677294623377E+02    0.64078E-05   -0.36786E-05250328   0.200E-02    0.401E-03
DAV:  16    -0.677294583797E+02    0.39579E-05   -0.26747E-06164336   0.543E-03    0.141E-03
DAV:  17    -0.677294583601E+02    0.19660E-07   -0.41421E-07125196   0.316E-03
   1 F= -.67729458E+02 E0= -.67729362E+02  d E =-.386995E-03
 PROFILE, used timers:     256
srun: Job 11456381 step creation temporarily disabled, retrying (Requested nodes are busy)
srun: Step created for StepId=11456381.9
 running on    8 total cores
 distrk:  each k-point on    2 cores,    4 groups
 distr:  one band on    1 cores,    2 groups
 OpenACC runtime initialized ...    4 GPUs detected
 vasp.6.2.1 16May21 (build Jun 30 2023 13:57:28) complex                         
 POSCAR found :  1 types and      64 ions
 Reading from existing POTCAR
 scaLAPACK will be used selectively (only on CPU)
 -----------------------------------------------------------------------------
|                                                                             |
|           W    W    AA    RRRRR   N    N  II  N    N   GGGG   !!!           |
|           W    W   A  A   R    R  NN   N  II  NN   N  G    G  !!!           |
|           W    W  A    A  R    R  N N  N  II  N N  N  G       !!!           |
|           W WW W  AAAAAA  RRRRR   N  N N  II  N  N N  G  GGG   !            |
|           WW  WW  A    A  R   R   N   NN  II  N   NN  G    G                |
|           W    W  A    A  R    R  N    N  II  N    N   GGGG   !!!           |
|                                                                             |
|     For optimal performance we recommend to set                             |
|       NCORE = 2 up to number-of-cores-per-socket                            |
|     NCORE specifies how many cores store one orbital (NPAR=cpu/NCORE).      |
|     This setting can greatly improve the performance of VASP for DFT.       |
|     The default, NCORE=1 might be grossly inefficient on modern             |
|     multi-core architectures or massively parallel machines. Do your        |
|     own testing! More info at https://www.vasp.at/wiki/index.php/NCORE      |
|     Unfortunately you need to use the default for GW and RPA                |
|     calculations (for HF NCORE is supported but not extensively tested      |
|     yet).                                                                   |
|                                                                             |
 -----------------------------------------------------------------------------

 Reading from existing POTCAR
 -----------------------------------------------------------------------------
|                                                                             |
|               ----> ADVICE to this user running VASP <----                  |
|                                                                             |
|     You have a (more or less) 'large supercell' and for larger cells it     |
|     might be more efficient to use real-space projection operators.         |
|     Therefore, try LREAL= Auto in the INCAR file.                           |
|     Mind: If you want to do very accurate calculations, keep the            |
|     reciprocal projection scheme (i.e. LREAL=.FALSE.).                      |
|                                                                             |
 -----------------------------------------------------------------------------

 LDA part: xc-table for Pade appr. of Perdew
 POSCAR, INCAR and KPOINTS ok, starting setup
 FFT: planning ...
 WAVECAR not read
 entering main loop
       N       E                     dE             d eps       ncg     rms          rms(c)
DAV:   1     0.176431655355E+05    0.17643E+05   -0.84542E+05276696   0.283E+03
DAV:   2     0.172056403333E+04   -0.15923E+05   -0.15542E+05238048   0.811E+02
DAV:   3     0.279929346846E+02   -0.16926E+04   -0.15904E+04247792   0.234E+02
DAV:   4    -0.721502433837E+02   -0.10014E+03   -0.97653E+02252792   0.500E+01
DAV:   5    -0.738038373248E+02   -0.16536E+01   -0.16497E+01251944   0.691E+00
DAV:   6    -0.738496702165E+02   -0.45833E-01   -0.45829E-01249912   0.120E+00
DAV:   7    -0.738527474246E+02   -0.30772E-02   -0.30772E-02263920   0.303E-01    0.140E+01
DAV:   8    -0.678698965198E+02    0.59829E+01   -0.33286E+01242560   0.147E+01    0.678E+00
DAV:   9    -0.676344480041E+02    0.23545E+00   -0.12055E+00243584   0.279E+00    0.389E+00
DAV:  10    -0.675576723740E+02    0.76776E-01   -0.26055E-01243424   0.199E+00    0.379E-01
DAV:  11    -0.675573567972E+02    0.31558E-03   -0.50313E-02246848   0.114E+00    0.158E-01
DAV:  12    -0.675574973786E+02   -0.14058E-03   -0.55869E-03247480   0.220E-01    0.855E-02
DAV:  13    -0.675575677279E+02   -0.70349E-04   -0.87220E-04246616   0.116E-01    0.269E-02
DAV:  14    -0.675575599246E+02    0.78033E-05   -0.13673E-04245256   0.647E-02    0.147E-02
DAV:  15    -0.675575538622E+02    0.60624E-05   -0.36259E-05249864   0.197E-02    0.422E-03
DAV:  16    -0.675575492296E+02    0.46326E-05   -0.27707E-06161624   0.562E-03    0.155E-03
DAV:  17    -0.675575492301E+02   -0.40745E-09   -0.43976E-07125416   0.338E-03
   1 F= -.67557549E+02 E0= -.67557394E+02  d E =-.622575E-03
 PROFILE, used timers:     256
srun: Job 11456381 step creation temporarily disabled, retrying (Requested nodes are busy)
srun: Step created for StepId=11456381.10
 running on    8 total cores
 distrk:  each k-point on    2 cores,    4 groups
 distr:  one band on    1 cores,    2 groups
 OpenACC runtime initialized ...    4 GPUs detected
 vasp.6.2.1 16May21 (build Jun 30 2023 13:57:28) complex                         
 POSCAR found :  1 types and      64 ions
 Reading from existing POTCAR
 scaLAPACK will be used selectively (only on CPU)
 -----------------------------------------------------------------------------
|                                                                             |
|           W    W    AA    RRRRR   N    N  II  N    N   GGGG   !!!           |
|           W    W   A  A   R    R  NN   N  II  NN   N  G    G  !!!           |
|           W    W  A    A  R    R  N N  N  II  N N  N  G       !!!           |
|           W WW W  AAAAAA  RRRRR   N  N N  II  N  N N  G  GGG   !            |
|           WW  WW  A    A  R   R   N   NN  II  N   NN  G    G                |
|           W    W  A    A  R    R  N    N  II  N    N   GGGG   !!!           |
|                                                                             |
|     For optimal performance we recommend to set                             |
|       NCORE = 2 up to number-of-cores-per-socket                            |
|     NCORE specifies how many cores store one orbital (NPAR=cpu/NCORE).      |
|     This setting can greatly improve the performance of VASP for DFT.       |
|     The default, NCORE=1 might be grossly inefficient on modern             |
|     multi-core architectures or massively parallel machines. Do your        |
|     own testing! More info at https://www.vasp.at/wiki/index.php/NCORE      |
|     Unfortunately you need to use the default for GW and RPA                |
|     calculations (for HF NCORE is supported but not extensively tested      |
|     yet).                                                                   |
|                                                                             |
 -----------------------------------------------------------------------------

 Reading from existing POTCAR
 -----------------------------------------------------------------------------
|                                                                             |
|               ----> ADVICE to this user running VASP <----                  |
|                                                                             |
|     You have a (more or less) 'large supercell' and for larger cells it     |
|     might be more efficient to use real-space projection operators.         |
|     Therefore, try LREAL= Auto in the INCAR file.                           |
|     Mind: If you want to do very accurate calculations, keep the            |
|     reciprocal projection scheme (i.e. LREAL=.FALSE.).                      |
|                                                                             |
 -----------------------------------------------------------------------------

 LDA part: xc-table for Pade appr. of Perdew
 POSCAR, INCAR and KPOINTS ok, starting setup
 FFT: planning ...
 WAVECAR not read
 entering main loop
       N       E                     dE             d eps       ncg     rms          rms(c)
DAV:   1     0.174875889844E+05    0.17488E+05   -0.84827E+05277256   0.281E+03
DAV:   2     0.168880785915E+04   -0.15799E+05   -0.15424E+05238048   0.805E+02
DAV:   3     0.263556373890E+02   -0.16625E+04   -0.15618E+04247760   0.232E+02
DAV:   4    -0.722322507574E+02   -0.98588E+02   -0.96077E+02252836   0.494E+01
DAV:   5    -0.738732547246E+02   -0.16410E+01   -0.16371E+01252136   0.687E+00
DAV:   6    -0.739188479438E+02   -0.45593E-01   -0.45589E-01250008   0.120E+00
DAV:   7    -0.739219251732E+02   -0.30772E-02   -0.30772E-02263768   0.302E-01    0.136E+01
DAV:   8    -0.681803618676E+02    0.57416E+01   -0.32097E+01242696   0.144E+01    0.677E+00
DAV:   9    -0.679571904287E+02    0.22317E+00   -0.11784E+00243336   0.284E+00    0.390E+00
DAV:  10    -0.678841345700E+02    0.73056E-01   -0.27391E-01243424   0.220E+00    0.426E-01
DAV:  11    -0.678830867529E+02    0.10478E-02   -0.58218E-02248944   0.127E+00    0.166E-01
DAV:  12    -0.678832859845E+02   -0.19923E-03   -0.70077E-03249264   0.204E-01    0.924E-02
DAV:  13    -0.678833460515E+02   -0.60067E-04   -0.10734E-03245952   0.131E-01    0.271E-02
DAV:  14    -0.678833408694E+02    0.51820E-05   -0.12910E-04245568   0.653E-02    0.150E-02
DAV:  15    -0.678833343970E+02    0.64724E-05   -0.40182E-05250512   0.226E-02    0.455E-03
DAV:  16    -0.678833302807E+02    0.41163E-05   -0.37749E-06185592   0.726E-03    0.151E-03
DAV:  17    -0.678833299146E+02    0.36610E-06   -0.55958E-07125360   0.348E-03
   1 F= -.67883330E+02 E0= -.67883387E+02  d E =0.226754E-03
 PROFILE, used timers:     256
srun: Job 11456381 step creation temporarily disabled, retrying (Requested nodes are busy)
srun: Step created for StepId=11456381.11
 running on    8 total cores
 distrk:  each k-point on    2 cores,    4 groups
 distr:  one band on    1 cores,    2 groups
 OpenACC runtime initialized ...    4 GPUs detected
 vasp.6.2.1 16May21 (build Jun 30 2023 13:57:28) complex                         
 POSCAR found :  1 types and      64 ions
 Reading from existing POTCAR
 scaLAPACK will be used selectively (only on CPU)
 -----------------------------------------------------------------------------
|                                                                             |
|           W    W    AA    RRRRR   N    N  II  N    N   GGGG   !!!           |
|           W    W   A  A   R    R  NN   N  II  NN   N  G    G  !!!           |
|           W    W  A    A  R    R  N N  N  II  N N  N  G       !!!           |
|           W WW W  AAAAAA  RRRRR   N  N N  II  N  N N  G  GGG   !            |
|           WW  WW  A    A  R   R   N   NN  II  N   NN  G    G                |
|           W    W  A    A  R    R  N    N  II  N    N   GGGG   !!!           |
|                                                                             |
|     For optimal performance we recommend to set                             |
|       NCORE = 2 up to number-of-cores-per-socket                            |
|     NCORE specifies how many cores store one orbital (NPAR=cpu/NCORE).      |
|     This setting can greatly improve the performance of VASP for DFT.       |
|     The default, NCORE=1 might be grossly inefficient on modern             |
|     multi-core architectures or massively parallel machines. Do your        |
|     own testing! More info at https://www.vasp.at/wiki/index.php/NCORE      |
|     Unfortunately you need to use the default for GW and RPA                |
|     calculations (for HF NCORE is supported but not extensively tested      |
|     yet).                                                                   |
|                                                                             |
 -----------------------------------------------------------------------------

 Reading from existing POTCAR
 -----------------------------------------------------------------------------
|                                                                             |
|               ----> ADVICE to this user running VASP <----                  |
|                                                                             |
|     You have a (more or less) 'large supercell' and for larger cells it     |
|     might be more efficient to use real-space projection operators.         |
|     Therefore, try LREAL= Auto in the INCAR file.                           |
|     Mind: If you want to do very accurate calculations, keep the            |
|     reciprocal projection scheme (i.e. LREAL=.FALSE.).                      |
|                                                                             |
 -----------------------------------------------------------------------------

 LDA part: xc-table for Pade appr. of Perdew
 POSCAR, INCAR and KPOINTS ok, starting setup
 FFT: planning ...
 WAVECAR not read
 entering main loop
       N       E                     dE             d eps       ncg     rms          rms(c)
DAV:   1     0.173131681916E+05    0.17313E+05   -0.85169E+05277576   0.279E+03
DAV:   2     0.165546257793E+04   -0.15658E+05   -0.15287E+05238048   0.798E+02
DAV:   3     0.252914044089E+02   -0.16302E+04   -0.15309E+04247792   0.229E+02
DAV:   4    -0.717048359172E+02   -0.96996E+02   -0.94517E+02252856   0.487E+01
DAV:   5    -0.733145685424E+02   -0.16097E+01   -0.16059E+01251488   0.683E+00
DAV:   6    -0.733612579640E+02   -0.46689E-01   -0.46686E-01250000   0.122E+00
DAV:   7    -0.733644628348E+02   -0.32049E-02   -0.32048E-02265376   0.309E-01    0.134E+01
DAV:   8    -0.678174780407E+02    0.55470E+01   -0.31283E+01242536   0.141E+01    0.675E+00
DAV:   9    -0.676001818755E+02    0.21730E+00   -0.11485E+00243384   0.268E+00    0.389E+00
DAV:  10    -0.675288767346E+02    0.71305E-01   -0.26262E-01243104   0.191E+00    0.373E-01
DAV:  11    -0.675287689221E+02    0.10781E-03   -0.49000E-02248416   0.109E+00    0.160E-01
DAV:  12    -0.675289710281E+02   -0.20211E-03   -0.50875E-03248904   0.216E-01    0.862E-02
DAV:  13    -0.675290590706E+02   -0.88042E-04   -0.97204E-04245728   0.108E-01    0.251E-02
DAV:  14    -0.675290475946E+02    0.11476E-04   -0.11763E-04246376   0.628E-02    0.134E-02
DAV:  15    -0.675290437959E+02    0.37987E-05   -0.32724E-05249752   0.189E-02    0.484E-03
DAV:  16    -0.675290384775E+02    0.53184E-05   -0.34518E-06175224   0.499E-03    0.127E-03
DAV:  17    -0.675290390283E+02   -0.55082E-06   -0.32235E-07125224   0.261E-03
   1 F= -.67529039E+02 E0= -.67529131E+02  d E =0.369063E-03
 PROFILE, used timers:     256
 running on    8 total cores
 distrk:  each k-point on    2 cores,    4 groups
 distr:  one band on    1 cores,    2 groups
 OpenACC runtime initialized ...    4 GPUs detected
 vasp.6.2.1 16May21 (build Jun 30 2023 13:57:28) complex                         
 POSCAR found :  1 types and      64 ions
 Reading from existing POTCAR
 scaLAPACK will be used selectively (only on CPU)
 -----------------------------------------------------------------------------
|                                                                             |
|           W    W    AA    RRRRR   N    N  II  N    N   GGGG   !!!           |
|           W    W   A  A   R    R  NN   N  II  NN   N  G    G  !!!           |
|           W    W  A    A  R    R  N N  N  II  N N  N  G       !!!           |
|           W WW W  AAAAAA  RRRRR   N  N N  II  N  N N  G  GGG   !            |
|           WW  WW  A    A  R   R   N   NN  II  N   NN  G    G                |
|           W    W  A    A  R    R  N    N  II  N    N   GGGG   !!!           |
|                                                                             |
|     For optimal performance we recommend to set                             |
|       NCORE = 2 up to number-of-cores-per-socket                            |
|     NCORE specifies how many cores store one orbital (NPAR=cpu/NCORE).      |
|     This setting can greatly improve the performance of VASP for DFT.       |
|     The default, NCORE=1 might be grossly inefficient on modern             |
|     multi-core architectures or massively parallel machines. Do your        |
|     own testing! More info at https://www.vasp.at/wiki/index.php/NCORE      |
|     Unfortunately you need to use the default for GW and RPA                |
|     calculations (for HF NCORE is supported but not extensively tested      |
|     yet).                                                                   |
|                                                                             |
 -----------------------------------------------------------------------------

 Reading from existing POTCAR
 -----------------------------------------------------------------------------
|                                                                             |
|               ----> ADVICE to this user running VASP <----                  |
|                                                                             |
|     You have a (more or less) 'large supercell' and for larger cells it     |
|     might be more efficient to use real-space projection operators.         |
|     Therefore, try LREAL= Auto in the INCAR file.                           |
|     Mind: If you want to do very accurate calculations, keep the            |
|     reciprocal projection scheme (i.e. LREAL=.FALSE.).                      |
|                                                                             |
 -----------------------------------------------------------------------------

 LDA part: xc-table for Pade appr. of Perdew
 POSCAR, INCAR and KPOINTS ok, starting setup
 FFT: planning ...
 WAVECAR not read
 entering main loop
       N       E                     dE             d eps       ncg     rms          rms(c)
DAV:   1     0.173669340311E+05    0.17367E+05   -0.85040E+05277432   0.279E+03
DAV:   2     0.166502438339E+04   -0.15702E+05   -0.15331E+05238048   0.800E+02
DAV:   3     0.253450002035E+02   -0.16397E+04   -0.15400E+04247808   0.230E+02
DAV:   4    -0.721912579442E+02   -0.97536E+02   -0.95015E+02252860   0.488E+01
DAV:   5    -0.738307160071E+02   -0.16395E+01   -0.16355E+01252144   0.683E+00
DAV:   6    -0.738761347086E+02   -0.45419E-01   -0.45415E-01250208   0.120E+00
DAV:   7    -0.738791853127E+02   -0.30506E-02   -0.30506E-02263896   0.300E-01    0.133E+01
DAV:   8    -0.683663315745E+02    0.55129E+01   -0.30975E+01242592   0.140E+01    0.677E+00
DAV:   9    -0.681529210752E+02    0.21341E+00   -0.11198E+00243536   0.267E+00    0.390E+00
DAV:  10    -0.680813656588E+02    0.71555E-01   -0.25562E-01244392   0.196E+00    0.371E-01
DAV:  11    -0.680811929372E+02    0.17272E-03   -0.47668E-02246792   0.111E+00    0.158E-01
DAV:  12    -0.680814168840E+02   -0.22395E-03   -0.51865E-03247928   0.203E-01    0.845E-02
DAV:  13    -0.680815025167E+02   -0.85633E-04   -0.87074E-04246200   0.108E-01    0.234E-02
DAV:  14    -0.680814922421E+02    0.10275E-04   -0.11388E-04247280   0.612E-02    0.127E-02
DAV:  15    -0.680814889708E+02    0.32713E-05   -0.31208E-05249632   0.177E-02    0.467E-03
DAV:  16    -0.680814836881E+02    0.52827E-05   -0.30395E-06171704   0.506E-03    0.111E-03
DAV:  17    -0.680814842092E+02   -0.52110E-06   -0.32663E-07125412   0.261E-03
   1 F= -.68081484E+02 E0= -.68081275E+02  d E =-.838796E-03
 PROFILE, used timers:     256
srun: Job 11456381 step creation temporarily disabled, retrying (Requested nodes are busy)
srun: Step created for StepId=11456381.13
 running on    8 total cores
 distrk:  each k-point on    2 cores,    4 groups
 distr:  one band on    1 cores,    2 groups
 OpenACC runtime initialized ...    4 GPUs detected
 vasp.6.2.1 16May21 (build Jun 30 2023 13:57:28) complex                         
 POSCAR found :  1 types and      64 ions
 Reading from existing POTCAR
 scaLAPACK will be used selectively (only on CPU)
 -----------------------------------------------------------------------------
|                                                                             |
|           W    W    AA    RRRRR   N    N  II  N    N   GGGG   !!!           |
|           W    W   A  A   R    R  NN   N  II  NN   N  G    G  !!!           |
|           W    W  A    A  R    R  N N  N  II  N N  N  G       !!!           |
|           W WW W  AAAAAA  RRRRR   N  N N  II  N  N N  G  GGG   !            |
|           WW  WW  A    A  R   R   N   NN  II  N   NN  G    G                |
|           W    W  A    A  R    R  N    N  II  N    N   GGGG   !!!           |
|                                                                             |
|     For optimal performance we recommend to set                             |
|       NCORE = 2 up to number-of-cores-per-socket                            |
|     NCORE specifies how many cores store one orbital (NPAR=cpu/NCORE).      |
|     This setting can greatly improve the performance of VASP for DFT.       |
|     The default, NCORE=1 might be grossly inefficient on modern             |
|     multi-core architectures or massively parallel machines. Do your        |
|     own testing! More info at https://www.vasp.at/wiki/index.php/NCORE      |
|     Unfortunately you need to use the default for GW and RPA                |
|     calculations (for HF NCORE is supported but not extensively tested      |
|     yet).                                                                   |
|                                                                             |
 -----------------------------------------------------------------------------

 Reading from existing POTCAR
 -----------------------------------------------------------------------------
|                                                                             |
|               ----> ADVICE to this user running VASP <----                  |
|                                                                             |
|     You have a (more or less) 'large supercell' and for larger cells it     |
|     might be more efficient to use real-space projection operators.         |
|     Therefore, try LREAL= Auto in the INCAR file.                           |
|     Mind: If you want to do very accurate calculations, keep the            |
|     reciprocal projection scheme (i.e. LREAL=.FALSE.).                      |
|                                                                             |
 -----------------------------------------------------------------------------

 LDA part: xc-table for Pade appr. of Perdew
 POSCAR, INCAR and KPOINTS ok, starting setup
 FFT: planning ...
 WAVECAR not read
 entering main loop
       N       E                     dE             d eps       ncg     rms          rms(c)
DAV:   1     0.171830024135E+05    0.17183E+05   -0.85378E+05277944   0.277E+03
DAV:   2     0.162924176527E+04   -0.15554E+05   -0.15187E+05238048   0.793E+02
DAV:   3     0.236940721860E+02   -0.16055E+04   -0.15076E+04248040   0.227E+02
DAV:   4    -0.719709089184E+02   -0.95665E+02   -0.93220E+02252912   0.481E+01
DAV:   5    -0.735696845004E+02   -0.15988E+01   -0.15949E+01251680   0.677E+00
DAV:   6    -0.736158206921E+02   -0.46136E-01   -0.46133E-01250376   0.121E+00
DAV:   7    -0.736189624883E+02   -0.31418E-02   -0.31418E-02264184   0.305E-01    0.131E+01
DAV:   8    -0.683041849037E+02    0.53148E+01   -0.30080E+01242664   0.137E+01    0.679E+00
DAV:   9    -0.680979477483E+02    0.20624E+00   -0.11011E+00243488   0.263E+00    0.391E+00
DAV:  10    -0.680295984746E+02    0.68349E-01   -0.26004E-01243248   0.193E+00    0.370E-01
DAV:  11    -0.680294667667E+02    0.13171E-03   -0.48882E-02247144   0.110E+00    0.159E-01
DAV:  12    -0.680297100242E+02   -0.24326E-03   -0.52923E-03247960   0.212E-01    0.857E-02
DAV:  13    -0.680297980143E+02   -0.87990E-04   -0.94155E-04246264   0.110E-01    0.257E-02
DAV:  14    -0.680297869199E+02    0.11094E-04   -0.12233E-04245656   0.635E-02    0.147E-02
DAV:  15    -0.680297835548E+02    0.33650E-05   -0.37531E-05250680   0.207E-02    0.401E-03
DAV:  16    -0.680297794366E+02    0.41183E-05   -0.27767E-06168128   0.458E-03    0.136E-03
DAV:  17    -0.680297797761E+02   -0.33955E-06   -0.32650E-07125248   0.264E-03
   1 F= -.68029780E+02 E0= -.68029697E+02  d E =-.330874E-03
 PROFILE, used timers:     256
srun: Job 11456381 step creation temporarily disabled, retrying (Requested nodes are busy)
srun: Step created for StepId=11456381.14
 running on    8 total cores
 distrk:  each k-point on    2 cores,    4 groups
 distr:  one band on    1 cores,    2 groups
 OpenACC runtime initialized ...    4 GPUs detected
 vasp.6.2.1 16May21 (build Jun 30 2023 13:57:28) complex                         
 POSCAR found :  1 types and      64 ions
 Reading from existing POTCAR
 scaLAPACK will be used selectively (only on CPU)
 -----------------------------------------------------------------------------
|                                                                             |
|           W    W    AA    RRRRR   N    N  II  N    N   GGGG   !!!           |
|           W    W   A  A   R    R  NN   N  II  NN   N  G    G  !!!           |
|           W    W  A    A  R    R  N N  N  II  N N  N  G       !!!           |
|           W WW W  AAAAAA  RRRRR   N  N N  II  N  N N  G  GGG   !            |
|           WW  WW  A    A  R   R   N   NN  II  N   NN  G    G                |
|           W    W  A    A  R    R  N    N  II  N    N   GGGG   !!!           |
|                                                                             |
|     For optimal performance we recommend to set                             |
|       NCORE = 2 up to number-of-cores-per-socket                            |
|     NCORE specifies how many cores store one orbital (NPAR=cpu/NCORE).      |
|     This setting can greatly improve the performance of VASP for DFT.       |
|     The default, NCORE=1 might be grossly inefficient on modern             |
|     multi-core architectures or massively parallel machines. Do your        |
|     own testing! More info at https://www.vasp.at/wiki/index.php/NCORE      |
|     Unfortunately you need to use the default for GW and RPA                |
|     calculations (for HF NCORE is supported but not extensively tested      |
|     yet).                                                                   |
|                                                                             |
 -----------------------------------------------------------------------------

 Reading from existing POTCAR
 -----------------------------------------------------------------------------
|                                                                             |
|               ----> ADVICE to this user running VASP <----                  |
|                                                                             |
|     You have a (more or less) 'large supercell' and for larger cells it     |
|     might be more efficient to use real-space projection operators.         |
|     Therefore, try LREAL= Auto in the INCAR file.                           |
|     Mind: If you want to do very accurate calculations, keep the            |
|     reciprocal projection scheme (i.e. LREAL=.FALSE.).                      |
|                                                                             |
 -----------------------------------------------------------------------------

 LDA part: xc-table for Pade appr. of Perdew
 POSCAR, INCAR and KPOINTS ok, starting setup
 FFT: planning ...
 WAVECAR not read
 entering main loop
       N       E                     dE             d eps       ncg     rms          rms(c)
DAV:   1     0.173406630279E+05    0.17341E+05   -0.85119E+05277528   0.279E+03
DAV:   2     0.166016171139E+04   -0.15681E+05   -0.15309E+05238048   0.799E+02
DAV:   3     0.253936214090E+02   -0.16348E+04   -0.15358E+04247904   0.229E+02
DAV:   4    -0.718903486426E+02   -0.97284E+02   -0.94758E+02252700   0.487E+01
DAV:   5    -0.735324042340E+02   -0.16421E+01   -0.16381E+01252168   0.683E+00
DAV:   6    -0.735779919933E+02   -0.45588E-01   -0.45585E-01250656   0.120E+00
DAV:   7    -0.735810290496E+02   -0.30371E-02   -0.30370E-02263632   0.298E-01    0.133E+01
DAV:   8    -0.680346423106E+02    0.55464E+01   -0.31316E+01242536   0.141E+01    0.671E+00
DAV:   9    -0.678220478344E+02    0.21259E+00   -0.11442E+00243256   0.282E+00    0.388E+00
DAV:  10    -0.677531137880E+02    0.68934E-01   -0.27707E-01243016   0.227E+00    0.446E-01
DAV:  11    -0.677515212662E+02    0.15925E-02   -0.57699E-02246296   0.128E+00    0.171E-01
DAV:  12    -0.677517861316E+02   -0.26487E-03   -0.76566E-03246520   0.210E-01    0.973E-02
DAV:  13    -0.677518343016E+02   -0.48170E-04   -0.13045E-03245792   0.154E-01    0.291E-02
DAV:  14    -0.677518351263E+02   -0.82466E-06   -0.15953E-04248816   0.626E-02    0.164E-02
DAV:  15    -0.677518267489E+02    0.83774E-05   -0.45367E-05249560   0.263E-02    0.411E-03
DAV:  16    -0.677518241387E+02    0.26102E-05   -0.48748E-06213504   0.826E-03    0.186E-03
DAV:  17    -0.677518232153E+02    0.92345E-06   -0.66557E-07125232   0.339E-03
   1 F= -.67751823E+02 E0= -.67751910E+02  d E =0.348581E-03
 PROFILE, used timers:     256
srun: Job 11456381 step creation temporarily disabled, retrying (Requested nodes are busy)
srun: Step created for StepId=11456381.15
 running on    8 total cores
 distrk:  each k-point on    2 cores,    4 groups
 distr:  one band on    1 cores,    2 groups
 OpenACC runtime initialized ...    4 GPUs detected
 vasp.6.2.1 16May21 (build Jun 30 2023 13:57:28) complex                         
 POSCAR found :  1 types and      64 ions
 Reading from existing POTCAR
 scaLAPACK will be used selectively (only on CPU)
 -----------------------------------------------------------------------------
|                                                                             |
|           W    W    AA    RRRRR   N    N  II  N    N   GGGG   !!!           |
|           W    W   A  A   R    R  NN   N  II  NN   N  G    G  !!!           |
|           W    W  A    A  R    R  N N  N  II  N N  N  G       !!!           |
|           W WW W  AAAAAA  RRRRR   N  N N  II  N  N N  G  GGG   !            |
|           WW  WW  A    A  R   R   N   NN  II  N   NN  G    G                |
|           W    W  A    A  R    R  N    N  II  N    N   GGGG   !!!           |
|                                                                             |
|     For optimal performance we recommend to set                             |
|       NCORE = 2 up to number-of-cores-per-socket                            |
|     NCORE specifies how many cores store one orbital (NPAR=cpu/NCORE).      |
|     This setting can greatly improve the performance of VASP for DFT.       |
|     The default, NCORE=1 might be grossly inefficient on modern             |
|     multi-core architectures or massively parallel machines. Do your        |
|     own testing! More info at https://www.vasp.at/wiki/index.php/NCORE      |
|     Unfortunately you need to use the default for GW and RPA                |
|     calculations (for HF NCORE is supported but not extensively tested      |
|     yet).                                                                   |
|                                                                             |
 -----------------------------------------------------------------------------

 Reading from existing POTCAR
 -----------------------------------------------------------------------------
|                                                                             |
|               ----> ADVICE to this user running VASP <----                  |
|                                                                             |
|     You have a (more or less) 'large supercell' and for larger cells it     |
|     might be more efficient to use real-space projection operators.         |
|     Therefore, try LREAL= Auto in the INCAR file.                           |
|     Mind: If you want to do very accurate calculations, keep the            |
|     reciprocal projection scheme (i.e. LREAL=.FALSE.).                      |
|                                                                             |
 -----------------------------------------------------------------------------

 LDA part: xc-table for Pade appr. of Perdew
 POSCAR, INCAR and KPOINTS ok, starting setup
 FFT: planning ...
 WAVECAR not read
 entering main loop
       N       E                     dE             d eps       ncg     rms          rms(c)
DAV:   1     0.176166009544E+05    0.17617E+05   -0.84559E+05276696   0.282E+03
DAV:   2     0.171382444137E+04   -0.15903E+05   -0.15525E+05238048   0.810E+02
DAV:   3     0.278295768866E+02   -0.16860E+04   -0.15845E+04247648   0.233E+02
DAV:   4    -0.722512579197E+02   -0.10008E+03   -0.97510E+02252912   0.498E+01
DAV:   5    -0.739370559235E+02   -0.16858E+01   -0.16816E+01252120   0.689E+00
DAV:   6    -0.739824419636E+02   -0.45386E-01   -0.45382E-01249944   0.119E+00
DAV:   7    -0.739854338680E+02   -0.29919E-02   -0.29918E-02261672   0.298E-01    0.136E+01
DAV:   8    -0.681580271131E+02    0.58274E+01   -0.32304E+01242712   0.145E+01    0.680E+00
DAV:   9    -0.679296455501E+02    0.22838E+00   -0.11615E+00243520   0.274E+00    0.391E+00
DAV:  10    -0.678523247734E+02    0.77321E-01   -0.25600E-01243240   0.197E+00    0.369E-01
DAV:  11    -0.678521421428E+02    0.18263E-03   -0.48172E-02247608   0.114E+00    0.158E-01
DAV:  12    -0.678522737956E+02   -0.13165E-03   -0.53183E-03246480   0.217E-01    0.841E-02
DAV:  13    -0.678523444117E+02   -0.70616E-04   -0.84160E-04246424   0.110E-01    0.246E-02
DAV:  14    -0.678523365743E+02    0.78374E-05   -0.12206E-04245744   0.637E-02    0.132E-02
DAV:  15    -0.678523315329E+02    0.50414E-05   -0.29107E-05250592   0.180E-02    0.427E-03
DAV:  16    -0.678523264448E+02    0.50881E-05   -0.27260E-06163072   0.565E-03    0.152E-03
DAV:  17    -0.678523264420E+02    0.28522E-08   -0.45128E-07125336   0.331E-03
   1 F= -.67852326E+02 E0= -.67852300E+02  d E =-.106689E-03
 PROFILE, used timers:     256
srun: Job 11456381 step creation temporarily disabled, retrying (Requested nodes are busy)
srun: Step created for StepId=11456381.16
 running on    8 total cores
 distrk:  each k-point on    2 cores,    4 groups
 distr:  one band on    1 cores,    2 groups
 OpenACC runtime initialized ...    4 GPUs detected
 vasp.6.2.1 16May21 (build Jun 30 2023 13:57:28) complex                         
 POSCAR found :  1 types and      64 ions
 Reading from existing POTCAR
 scaLAPACK will be used selectively (only on CPU)
 -----------------------------------------------------------------------------
|                                                                             |
|           W    W    AA    RRRRR   N    N  II  N    N   GGGG   !!!           |
|           W    W   A  A   R    R  NN   N  II  NN   N  G    G  !!!           |
|           W    W  A    A  R    R  N N  N  II  N N  N  G       !!!           |
|           W WW W  AAAAAA  RRRRR   N  N N  II  N  N N  G  GGG   !            |
|           WW  WW  A    A  R   R   N   NN  II  N   NN  G    G                |
|           W    W  A    A  R    R  N    N  II  N    N   GGGG   !!!           |
|                                                                             |
|     For optimal performance we recommend to set                             |
|       NCORE = 2 up to number-of-cores-per-socket                            |
|     NCORE specifies how many cores store one orbital (NPAR=cpu/NCORE).      |
|     This setting can greatly improve the performance of VASP for DFT.       |
|     The default, NCORE=1 might be grossly inefficient on modern             |
|     multi-core architectures or massively parallel machines. Do your        |
|     own testing! More info at https://www.vasp.at/wiki/index.php/NCORE      |
|     Unfortunately you need to use the default for GW and RPA                |
|     calculations (for HF NCORE is supported but not extensively tested      |
|     yet).                                                                   |
|                                                                             |
 -----------------------------------------------------------------------------

 Reading from existing POTCAR
 -----------------------------------------------------------------------------
|                                                                             |
|               ----> ADVICE to this user running VASP <----                  |
|                                                                             |
|     You have a (more or less) 'large supercell' and for larger cells it     |
|     might be more efficient to use real-space projection operators.         |
|     Therefore, try LREAL= Auto in the INCAR file.                           |
|     Mind: If you want to do very accurate calculations, keep the            |
|     reciprocal projection scheme (i.e. LREAL=.FALSE.).                      |
|                                                                             |
 -----------------------------------------------------------------------------

 LDA part: xc-table for Pade appr. of Perdew
 POSCAR, INCAR and KPOINTS ok, starting setup
 FFT: planning ...
 WAVECAR not read
 entering main loop
       N       E                     dE             d eps       ncg     rms          rms(c)
DAV:   1     0.172430980516E+05    0.17243E+05   -0.85262E+05277736   0.278E+03
DAV:   2     0.164134810126E+04   -0.15602E+05   -0.15234E+05238048   0.795E+02
DAV:   3     0.240451968742E+02   -0.16173E+04   -0.15184E+04247880   0.228E+02
DAV:   4    -0.725770337624E+02   -0.96622E+02   -0.94149E+02252904   0.484E+01
DAV:   5    -0.741844008795E+02   -0.16074E+01   -0.16035E+01251384   0.679E+00
DAV:   6    -0.742308764785E+02   -0.46476E-01   -0.46472E-01250624   0.122E+00
DAV:   7    -0.742340265452E+02   -0.31501E-02   -0.31500E-02263792   0.306E-01    0.132E+01
DAV:   8    -0.688621836711E+02    0.53718E+01   -0.30476E+01242704   0.138E+01    0.680E+00
DAV:   9    -0.686544932920E+02    0.20769E+00   -0.10955E+00243648   0.258E+00    0.392E+00
DAV:  10    -0.685853430019E+02    0.69150E-01   -0.25083E-01242864   0.176E+00    0.340E-01
DAV:  11    -0.685853996421E+02   -0.56640E-04   -0.39320E-02250944   0.957E-01    0.152E-01
DAV:  12    -0.685856564836E+02   -0.25684E-03   -0.40937E-03247920   0.210E-01    0.824E-02
DAV:  13    -0.685857395970E+02   -0.83113E-04   -0.91738E-04245584   0.950E-02    0.228E-02
DAV:  14    -0.685857263683E+02    0.13229E-04   -0.89600E-05246680   0.539E-02    0.119E-02
DAV:  15    -0.685857245037E+02    0.18646E-05   -0.26791E-05248640   0.179E-02    0.406E-03
DAV:  16    -0.685857201908E+02    0.43129E-05   -0.28553E-06170480   0.463E-03    0.136E-03
DAV:  17    -0.685857207261E+02   -0.53534E-06   -0.22713E-07125196   0.207E-03
   1 F= -.68585721E+02 E0= -.68585775E+02  d E =0.216241E-03
 PROFILE, used timers:     256
