 running on    8 total cores
 distrk:  each k-point on    2 cores,    4 groups
 distr:  one band on    1 cores,    2 groups
 OpenACC runtime initialized ...    4 GPUs detected
 vasp.6.2.1 16May21 (build Jun 30 2023 13:57:28) complex                         
 POSCAR found :  1 types and      64 ions
 Reading from existing POTCAR
 scaLAPACK will be used selectively (only on CPU)
 -----------------------------------------------------------------------------
|                                                                             |
|           W    W    AA    RRRRR   N    N  II  N    N   GGGG   !!!           |
|           W    W   A  A   R    R  NN   N  II  NN   N  G    G  !!!           |
|           W    W  A    A  R    R  N N  N  II  N N  N  G       !!!           |
|           W WW W  AAAAAA  RRRRR   N  N N  II  N  N N  G  GGG   !            |
|           WW  WW  A    A  R   R   N   NN  II  N   NN  G    G                |
|           W    W  A    A  R    R  N    N  II  N    N   GGGG   !!!           |
|                                                                             |
|     For optimal performance we recommend to set                             |
|       NCORE = 2 up to number-of-cores-per-socket                            |
|     NCORE specifies how many cores store one orbital (NPAR=cpu/NCORE).      |
|     This setting can greatly improve the performance of VASP for DFT.       |
|     The default, NCORE=1 might be grossly inefficient on modern             |
|     multi-core architectures or massively parallel machines. Do your        |
|     own testing! More info at https://www.vasp.at/wiki/index.php/NCORE      |
|     Unfortunately you need to use the default for GW and RPA                |
|     calculations (for HF NCORE is supported but not extensively tested      |
|     yet).                                                                   |
|                                                                             |
 -----------------------------------------------------------------------------

 Reading from existing POTCAR
 -----------------------------------------------------------------------------
|                                                                             |
|               ----> ADVICE to this user running VASP <----                  |
|                                                                             |
|     You have a (more or less) 'large supercell' and for larger cells it     |
|     might be more efficient to use real-space projection operators.         |
|     Therefore, try LREAL= Auto in the INCAR file.                           |
|     Mind: If you want to do very accurate calculations, keep the            |
|     reciprocal projection scheme (i.e. LREAL=.FALSE.).                      |
|                                                                             |
 -----------------------------------------------------------------------------

 LDA part: xc-table for Pade appr. of Perdew
 POSCAR, INCAR and KPOINTS ok, starting setup
 FFT: planning ...
 WAVECAR not read
 entering main loop
       N       E                     dE             d eps       ncg     rms          rms(c)
DAV:   1     0.178738021488E+05    0.17874E+05   -0.84117E+05276080   0.285E+03
DAV:   2     0.176795631850E+04   -0.16106E+05   -0.15719E+05238048   0.820E+02
DAV:   3     0.326273083576E+02   -0.17353E+04   -0.16316E+04247720   0.238E+02
DAV:   4    -0.700243114034E+02   -0.10265E+03   -0.10002E+03252600   0.511E+01
DAV:   5    -0.717209646787E+02   -0.16967E+01   -0.16926E+01251032   0.699E+00
DAV:   6    -0.717680037337E+02   -0.47039E-01   -0.47035E-01249496   0.122E+00
DAV:   7    -0.717711454636E+02   -0.31417E-02   -0.31417E-02264160   0.309E-01    0.143E+01
DAV:   8    -0.654333963330E+02    0.63377E+01   -0.34667E+01242560   0.153E+01    0.671E+00
DAV:   9    -0.651847536958E+02    0.24864E+00   -0.12971E+00243280   0.306E+00    0.385E+00
DAV:  10    -0.651035679617E+02    0.81186E-01   -0.28787E-01243840   0.244E+00    0.467E-01
DAV:  11    -0.651019391252E+02    0.16288E-02   -0.70815E-02245368   0.146E+00    0.171E-01
DAV:  12    -0.651020193382E+02   -0.80213E-04   -0.85836E-03246824   0.243E-01    0.942E-02
DAV:  13    -0.651020867972E+02   -0.67459E-04   -0.10829E-03246008   0.147E-01    0.351E-02
DAV:  14    -0.651020910946E+02   -0.42974E-05   -0.19044E-04248264   0.734E-02    0.168E-02
DAV:  15    -0.651020812059E+02    0.98888E-05   -0.48621E-05248448   0.270E-02    0.475E-03
DAV:  16    -0.651020772955E+02    0.39103E-05   -0.50843E-06229048   0.900E-03    0.236E-03
DAV:  17    -0.651020758596E+02    0.14359E-05   -0.84041E-07125296   0.460E-03    0.720E-04
DAV:  18    -0.651020761438E+02   -0.28418E-06   -0.18136E-07125144   0.156E-03
   1 F= -.65102076E+02 E0= -.65102131E+02  d E =0.219685E-03
 PROFILE, used timers:     256
srun: Job 11490425 step creation temporarily disabled, retrying (Requested nodes are busy)
srun: Step created for StepId=11490425.1
 running on    8 total cores
 distrk:  each k-point on    2 cores,    4 groups
 distr:  one band on    1 cores,    2 groups
 OpenACC runtime initialized ...    4 GPUs detected
 vasp.6.2.1 16May21 (build Jun 30 2023 13:57:28) complex                         
 POSCAR found :  1 types and      64 ions
 Reading from existing POTCAR
 scaLAPACK will be used selectively (only on CPU)
 -----------------------------------------------------------------------------
|                                                                             |
|           W    W    AA    RRRRR   N    N  II  N    N   GGGG   !!!           |
|           W    W   A  A   R    R  NN   N  II  NN   N  G    G  !!!           |
|           W    W  A    A  R    R  N N  N  II  N N  N  G       !!!           |
|           W WW W  AAAAAA  RRRRR   N  N N  II  N  N N  G  GGG   !            |
|           WW  WW  A    A  R   R   N   NN  II  N   NN  G    G                |
|           W    W  A    A  R    R  N    N  II  N    N   GGGG   !!!           |
|                                                                             |
|     For optimal performance we recommend to set                             |
|       NCORE = 2 up to number-of-cores-per-socket                            |
|     NCORE specifies how many cores store one orbital (NPAR=cpu/NCORE).      |
|     This setting can greatly improve the performance of VASP for DFT.       |
|     The default, NCORE=1 might be grossly inefficient on modern             |
|     multi-core architectures or massively parallel machines. Do your        |
|     own testing! More info at https://www.vasp.at/wiki/index.php/NCORE      |
|     Unfortunately you need to use the default for GW and RPA                |
|     calculations (for HF NCORE is supported but not extensively tested      |
|     yet).                                                                   |
|                                                                             |
 -----------------------------------------------------------------------------

 Reading from existing POTCAR
 -----------------------------------------------------------------------------
|                                                                             |
|               ----> ADVICE to this user running VASP <----                  |
|                                                                             |
|     You have a (more or less) 'large supercell' and for larger cells it     |
|     might be more efficient to use real-space projection operators.         |
|     Therefore, try LREAL= Auto in the INCAR file.                           |
|     Mind: If you want to do very accurate calculations, keep the            |
|     reciprocal projection scheme (i.e. LREAL=.FALSE.).                      |
|                                                                             |
 -----------------------------------------------------------------------------

 LDA part: xc-table for Pade appr. of Perdew
 POSCAR, INCAR and KPOINTS ok, starting setup
 FFT: planning ...
 WAVECAR not read
 entering main loop
       N       E                     dE             d eps       ncg     rms          rms(c)
DAV:   1     0.174719494670E+05    0.17472E+05   -0.84939E+05277456   0.281E+03
DAV:   2     0.168748092480E+04   -0.15784E+05   -0.15409E+05238048   0.804E+02
DAV:   3     0.286103497189E+02   -0.16589E+04   -0.15590E+04247920   0.232E+02
DAV:   4    -0.694361775242E+02   -0.98047E+02   -0.95503E+02252428   0.495E+01
DAV:   5    -0.710486687234E+02   -0.16125E+01   -0.16087E+01251416   0.689E+00
DAV:   6    -0.710956513378E+02   -0.46983E-01   -0.46979E-01249632   0.123E+00
DAV:   7    -0.710988966891E+02   -0.32454E-02   -0.32453E-02266520   0.312E-01    0.138E+01
DAV:   8    -0.652034130645E+02    0.58955E+01   -0.32647E+01242664   0.148E+01    0.662E+00
DAV:   9    -0.649723866977E+02    0.23103E+00   -0.12958E+00243168   0.329E+00    0.382E+00
DAV:  10    -0.649010088861E+02    0.71378E-01   -0.34253E-01244144   0.280E+00    0.570E-01
DAV:  11    -0.648971381096E+02    0.38708E-02   -0.89892E-02246992   0.166E+00    0.194E-01
DAV:  12    -0.648972191251E+02   -0.81015E-04   -0.12926E-02247304   0.282E-01    0.111E-01
DAV:  13    -0.648972687658E+02   -0.49641E-04   -0.18869E-03245384   0.187E-01    0.413E-02
DAV:  14    -0.648972954908E+02   -0.26725E-04   -0.29629E-04248472   0.744E-02    0.239E-02
DAV:  15    -0.648972782102E+02    0.17281E-04   -0.87611E-05248312   0.390E-02    0.542E-03
DAV:  16    -0.648972754236E+02    0.27866E-05   -0.83601E-06220392   0.101E-02    0.307E-03
DAV:  17    -0.648972735052E+02    0.19184E-05   -0.14817E-06125536   0.474E-03    0.769E-04
DAV:  18    -0.648972734393E+02    0.65949E-07   -0.19781E-07125120   0.194E-03
   1 F= -.64897273E+02 E0= -.64897139E+02  d E =-.536810E-03
 PROFILE, used timers:     256
srun: Job 11490425 step creation temporarily disabled, retrying (Requested nodes are busy)
srun: Step created for StepId=11490425.2
 running on    8 total cores
 distrk:  each k-point on    2 cores,    4 groups
 distr:  one band on    1 cores,    2 groups
 OpenACC runtime initialized ...    4 GPUs detected
 vasp.6.2.1 16May21 (build Jun 30 2023 13:57:28) complex                         
 POSCAR found :  1 types and      64 ions
 Reading from existing POTCAR
 scaLAPACK will be used selectively (only on CPU)
 -----------------------------------------------------------------------------
|                                                                             |
|           W    W    AA    RRRRR   N    N  II  N    N   GGGG   !!!           |
|           W    W   A  A   R    R  NN   N  II  NN   N  G    G  !!!           |
|           W    W  A    A  R    R  N N  N  II  N N  N  G       !!!           |
|           W WW W  AAAAAA  RRRRR   N  N N  II  N  N N  G  GGG   !            |
|           WW  WW  A    A  R   R   N   NN  II  N   NN  G    G                |
|           W    W  A    A  R    R  N    N  II  N    N   GGGG   !!!           |
|                                                                             |
|     For optimal performance we recommend to set                             |
|       NCORE = 2 up to number-of-cores-per-socket                            |
|     NCORE specifies how many cores store one orbital (NPAR=cpu/NCORE).      |
|     This setting can greatly improve the performance of VASP for DFT.       |
|     The default, NCORE=1 might be grossly inefficient on modern             |
|     multi-core architectures or massively parallel machines. Do your        |
|     own testing! More info at https://www.vasp.at/wiki/index.php/NCORE      |
|     Unfortunately you need to use the default for GW and RPA                |
|     calculations (for HF NCORE is supported but not extensively tested      |
|     yet).                                                                   |
|                                                                             |
 -----------------------------------------------------------------------------

 Reading from existing POTCAR
 -----------------------------------------------------------------------------
|                                                                             |
|               ----> ADVICE to this user running VASP <----                  |
|                                                                             |
|     You have a (more or less) 'large supercell' and for larger cells it     |
|     might be more efficient to use real-space projection operators.         |
|     Therefore, try LREAL= Auto in the INCAR file.                           |
|     Mind: If you want to do very accurate calculations, keep the            |
|     reciprocal projection scheme (i.e. LREAL=.FALSE.).                      |
|                                                                             |
 -----------------------------------------------------------------------------

 LDA part: xc-table for Pade appr. of Perdew
 POSCAR, INCAR and KPOINTS ok, starting setup
 FFT: planning ...
 WAVECAR not read
 entering main loop
       N       E                     dE             d eps       ncg     rms          rms(c)
DAV:   1     0.178984338839E+05    0.17898E+05   -0.84050E+05276024   0.285E+03
DAV:   2     0.177261113699E+04   -0.16126E+05   -0.15739E+05238048   0.821E+02
DAV:   3     0.320958532250E+02   -0.17405E+04   -0.16368E+04247544   0.238E+02
DAV:   4    -0.707168221163E+02   -0.10281E+03   -0.10019E+03252792   0.512E+01
DAV:   5    -0.724274291814E+02   -0.17106E+01   -0.17065E+01251528   0.699E+00
DAV:   6    -0.724736335011E+02   -0.46204E-01   -0.46200E-01249616   0.120E+00
DAV:   7    -0.724766714210E+02   -0.30379E-02   -0.30379E-02262528   0.302E-01    0.143E+01
DAV:   8    -0.661439726118E+02    0.63327E+01   -0.34699E+01242608   0.153E+01    0.674E+00
DAV:   9    -0.658948584603E+02    0.24911E+00   -0.12703E+00243432   0.299E+00    0.386E+00
DAV:  10    -0.658133460380E+02    0.81512E-01   -0.28129E-01243552   0.228E+00    0.443E-01
DAV:  11    -0.658118413924E+02    0.15046E-02   -0.60553E-02246104   0.134E+00    0.167E-01
DAV:  12    -0.658119295004E+02   -0.88108E-04   -0.76422E-03247872   0.222E-01    0.922E-02
DAV:  13    -0.658119791348E+02   -0.49634E-04   -0.10542E-03245872   0.142E-01    0.304E-02
DAV:  14    -0.658119789340E+02    0.20083E-06   -0.16931E-04245304   0.678E-02    0.163E-02
DAV:  15    -0.658119694590E+02    0.94750E-05   -0.42980E-05249352   0.241E-02    0.436E-03
DAV:  16    -0.658119650326E+02    0.44264E-05   -0.36883E-06184616   0.705E-03    0.193E-03
DAV:  17    -0.658119643281E+02    0.70457E-06   -0.65456E-07125288   0.389E-03
   1 F= -.65811964E+02 E0= -.65811780E+02  d E =-.736433E-03
 PROFILE, used timers:     256
srun: Job 11490425 step creation temporarily disabled, retrying (Requested nodes are busy)
srun: Step created for StepId=11490425.3
 running on    8 total cores
 distrk:  each k-point on    2 cores,    4 groups
 distr:  one band on    1 cores,    2 groups
 OpenACC runtime initialized ...    4 GPUs detected
 vasp.6.2.1 16May21 (build Jun 30 2023 13:57:28) complex                         
 POSCAR found :  1 types and      64 ions
 Reading from existing POTCAR
 scaLAPACK will be used selectively (only on CPU)
 -----------------------------------------------------------------------------
|                                                                             |
|           W    W    AA    RRRRR   N    N  II  N    N   GGGG   !!!           |
|           W    W   A  A   R    R  NN   N  II  NN   N  G    G  !!!           |
|           W    W  A    A  R    R  N N  N  II  N N  N  G       !!!           |
|           W WW W  AAAAAA  RRRRR   N  N N  II  N  N N  G  GGG   !            |
|           WW  WW  A    A  R   R   N   NN  II  N   NN  G    G                |
|           W    W  A    A  R    R  N    N  II  N    N   GGGG   !!!           |
|                                                                             |
|     For optimal performance we recommend to set                             |
|       NCORE = 2 up to number-of-cores-per-socket                            |
|     NCORE specifies how many cores store one orbital (NPAR=cpu/NCORE).      |
|     This setting can greatly improve the performance of VASP for DFT.       |
|     The default, NCORE=1 might be grossly inefficient on modern             |
|     multi-core architectures or massively parallel machines. Do your        |
|     own testing! More info at https://www.vasp.at/wiki/index.php/NCORE      |
|     Unfortunately you need to use the default for GW and RPA                |
|     calculations (for HF NCORE is supported but not extensively tested      |
|     yet).                                                                   |
|                                                                             |
 -----------------------------------------------------------------------------

 Reading from existing POTCAR
 -----------------------------------------------------------------------------
|                                                                             |
|               ----> ADVICE to this user running VASP <----                  |
|                                                                             |
|     You have a (more or less) 'large supercell' and for larger cells it     |
|     might be more efficient to use real-space projection operators.         |
|     Therefore, try LREAL= Auto in the INCAR file.                           |
|     Mind: If you want to do very accurate calculations, keep the            |
|     reciprocal projection scheme (i.e. LREAL=.FALSE.).                      |
|                                                                             |
 -----------------------------------------------------------------------------

 LDA part: xc-table for Pade appr. of Perdew
 POSCAR, INCAR and KPOINTS ok, starting setup
 FFT: planning ...
 WAVECAR not read
 entering main loop
       N       E                     dE             d eps       ncg     rms          rms(c)
DAV:   1     0.175305384111E+05    0.17531E+05   -0.84773E+05277024   0.281E+03
DAV:   2     0.169729205273E+04   -0.15833E+05   -0.15457E+05238048   0.806E+02
DAV:   3     0.282742469573E+02   -0.16690E+04   -0.15689E+04247928   0.232E+02
DAV:   4    -0.706157815185E+02   -0.98890E+02   -0.96316E+02252736   0.496E+01
DAV:   5    -0.722629490964E+02   -0.16472E+01   -0.16431E+01251768   0.689E+00
DAV:   6    -0.723091092059E+02   -0.46160E-01   -0.46156E-01249904   0.121E+00
DAV:   7    -0.723122262298E+02   -0.31170E-02   -0.31170E-02264360   0.305E-01    0.136E+01
DAV:   8    -0.664581907114E+02    0.58540E+01   -0.32358E+01242672   0.146E+01    0.671E+00
DAV:   9    -0.662286189244E+02    0.22957E+00   -0.12347E+00243400   0.304E+00    0.387E+00
DAV:  10    -0.661537696348E+02    0.74849E-01   -0.30683E-01243960   0.246E+00    0.492E-01
DAV:  11    -0.661514639376E+02    0.23057E-02   -0.72791E-02245328   0.143E+00    0.179E-01
DAV:  12    -0.661515106532E+02   -0.46716E-04   -0.91820E-03250224   0.230E-01    0.999E-02
DAV:  13    -0.661515667777E+02   -0.56125E-04   -0.13689E-03245520   0.155E-01    0.329E-02
DAV:  14    -0.661515741427E+02   -0.73650E-05   -0.17543E-04246768   0.660E-02    0.181E-02
DAV:  15    -0.661515632928E+02    0.10850E-04   -0.49296E-05248800   0.276E-02    0.430E-03
DAV:  16    -0.661515600798E+02    0.32129E-05   -0.45322E-06213000   0.765E-03    0.210E-03
DAV:  17    -0.661515590698E+02    0.10101E-05   -0.70744E-07125336   0.381E-03    0.662E-04
DAV:  18    -0.661515590743E+02   -0.44965E-08   -0.13830E-07125096   0.145E-03
   1 F= -.66151559E+02 E0= -.66151533E+02  d E =-.103494E-03
 PROFILE, used timers:     256
srun: Job 11490425 step creation temporarily disabled, retrying (Requested nodes are busy)
srun: Job 11490425 step creation still disabled, retrying (Requested nodes are busy)
srun: Job 11490425 step creation still disabled, retrying (Requested nodes are busy)
srun: Step created for StepId=11490425.4
 running on    8 total cores
 distrk:  each k-point on    2 cores,    4 groups
 distr:  one band on    1 cores,    2 groups
 OpenACC runtime initialized ...    4 GPUs detected
 vasp.6.2.1 16May21 (build Jun 30 2023 13:57:28) complex                         
 POSCAR found :  1 types and      64 ions
 Reading from existing POTCAR
 scaLAPACK will be used selectively (only on CPU)
 -----------------------------------------------------------------------------
|                                                                             |
|           W    W    AA    RRRRR   N    N  II  N    N   GGGG   !!!           |
|           W    W   A  A   R    R  NN   N  II  NN   N  G    G  !!!           |
|           W    W  A    A  R    R  N N  N  II  N N  N  G       !!!           |
|           W WW W  AAAAAA  RRRRR   N  N N  II  N  N N  G  GGG   !            |
|           WW  WW  A    A  R   R   N   NN  II  N   NN  G    G                |
|           W    W  A    A  R    R  N    N  II  N    N   GGGG   !!!           |
|                                                                             |
|     For optimal performance we recommend to set                             |
|       NCORE = 2 up to number-of-cores-per-socket                            |
|     NCORE specifies how many cores store one orbital (NPAR=cpu/NCORE).      |
|     This setting can greatly improve the performance of VASP for DFT.       |
|     The default, NCORE=1 might be grossly inefficient on modern             |
|     multi-core architectures or massively parallel machines. Do your        |
|     own testing! More info at https://www.vasp.at/wiki/index.php/NCORE      |
|     Unfortunately you need to use the default for GW and RPA                |
|     calculations (for HF NCORE is supported but not extensively tested      |
|     yet).                                                                   |
|                                                                             |
 -----------------------------------------------------------------------------

 Reading from existing POTCAR
 -----------------------------------------------------------------------------
|                                                                             |
|               ----> ADVICE to this user running VASP <----                  |
|                                                                             |
|     You have a (more or less) 'large supercell' and for larger cells it     |
|     might be more efficient to use real-space projection operators.         |
|     Therefore, try LREAL= Auto in the INCAR file.                           |
|     Mind: If you want to do very accurate calculations, keep the            |
|     reciprocal projection scheme (i.e. LREAL=.FALSE.).                      |
|                                                                             |
 -----------------------------------------------------------------------------

 LDA part: xc-table for Pade appr. of Perdew
 POSCAR, INCAR and KPOINTS ok, starting setup
 FFT: planning ...
 WAVECAR not read
 entering main loop
       N       E                     dE             d eps       ncg     rms          rms(c)
DAV:   1     0.176222292590E+05    0.17622E+05   -0.84577E+05276752   0.282E+03
DAV:   2     0.171619871800E+04   -0.15906E+05   -0.15528E+05238048   0.810E+02
DAV:   3     0.298205977080E+02   -0.16864E+04   -0.15852E+04247760   0.234E+02
DAV:   4    -0.701974520347E+02   -0.10002E+03   -0.97399E+02252776   0.500E+01
DAV:   5    -0.718725443491E+02   -0.16751E+01   -0.16710E+01251064   0.691E+00
DAV:   6    -0.719194132133E+02   -0.46869E-01   -0.46865E-01249512   0.122E+00
DAV:   7    -0.719225742451E+02   -0.31610E-02   -0.31610E-02263784   0.309E-01    0.137E+01
DAV:   8    -0.660326801976E+02    0.58899E+01   -0.32433E+01242496   0.146E+01    0.667E+00
DAV:   9    -0.657970545905E+02    0.23563E+00   -0.12087E+00243472   0.286E+00    0.382E+00
DAV:  10    -0.657184581529E+02    0.78596E-01   -0.27592E-01243736   0.220E+00    0.419E-01
DAV:  11    -0.657179173442E+02    0.54081E-03   -0.62735E-02245584   0.133E+00    0.167E-01
DAV:  12    -0.657180045702E+02   -0.87226E-04   -0.69774E-03246688   0.242E-01    0.891E-02
DAV:  13    -0.657180899224E+02   -0.85352E-04   -0.93895E-04246472   0.131E-01    0.312E-02
DAV:  14    -0.657180891606E+02    0.76178E-06   -0.17340E-04246848   0.714E-02    0.153E-02
DAV:  15    -0.657180827584E+02    0.64022E-05   -0.41926E-05248944   0.217E-02    0.514E-03
DAV:  16    -0.657180774193E+02    0.53391E-05   -0.36616E-06175848   0.710E-03    0.192E-03
DAV:  17    -0.657180768473E+02    0.57201E-06   -0.67396E-07125240   0.405E-03
   1 F= -.65718077E+02 E0= -.65718096E+02  d E =0.749036E-04
 PROFILE, used timers:     256
srun: Job 11490425 step creation temporarily disabled, retrying (Requested nodes are busy)
srun: Step created for StepId=11490425.5
 running on    8 total cores
 distrk:  each k-point on    2 cores,    4 groups
 distr:  one band on    1 cores,    2 groups
 OpenACC runtime initialized ...    4 GPUs detected
 vasp.6.2.1 16May21 (build Jun 30 2023 13:57:28) complex                         
 POSCAR found :  1 types and      64 ions
 Reading from existing POTCAR
 scaLAPACK will be used selectively (only on CPU)
 -----------------------------------------------------------------------------
|                                                                             |
|           W    W    AA    RRRRR   N    N  II  N    N   GGGG   !!!           |
|           W    W   A  A   R    R  NN   N  II  NN   N  G    G  !!!           |
|           W    W  A    A  R    R  N N  N  II  N N  N  G       !!!           |
|           W WW W  AAAAAA  RRRRR   N  N N  II  N  N N  G  GGG   !            |
|           WW  WW  A    A  R   R   N   NN  II  N   NN  G    G                |
|           W    W  A    A  R    R  N    N  II  N    N   GGGG   !!!           |
|                                                                             |
|     For optimal performance we recommend to set                             |
|       NCORE = 2 up to number-of-cores-per-socket                            |
|     NCORE specifies how many cores store one orbital (NPAR=cpu/NCORE).      |
|     This setting can greatly improve the performance of VASP for DFT.       |
|     The default, NCORE=1 might be grossly inefficient on modern             |
|     multi-core architectures or massively parallel machines. Do your        |
|     own testing! More info at https://www.vasp.at/wiki/index.php/NCORE      |
|     Unfortunately you need to use the default for GW and RPA                |
|     calculations (for HF NCORE is supported but not extensively tested      |
|     yet).                                                                   |
|                                                                             |
 -----------------------------------------------------------------------------

 Reading from existing POTCAR
 -----------------------------------------------------------------------------
|                                                                             |
|               ----> ADVICE to this user running VASP <----                  |
|                                                                             |
|     You have a (more or less) 'large supercell' and for larger cells it     |
|     might be more efficient to use real-space projection operators.         |
|     Therefore, try LREAL= Auto in the INCAR file.                           |
|     Mind: If you want to do very accurate calculations, keep the            |
|     reciprocal projection scheme (i.e. LREAL=.FALSE.).                      |
|                                                                             |
 -----------------------------------------------------------------------------

 LDA part: xc-table for Pade appr. of Perdew
 POSCAR, INCAR and KPOINTS ok, starting setup
 FFT: planning ...
 WAVECAR not read
 entering main loop
       N       E                     dE             d eps       ncg     rms          rms(c)
DAV:   1     0.173235505862E+05    0.17324E+05   -0.85180E+05277464   0.279E+03
DAV:   2     0.165647827625E+04   -0.15667E+05   -0.15297E+05238048   0.798E+02
DAV:   3     0.268430526844E+02   -0.16296E+04   -0.15315E+04247928   0.229E+02
DAV:   4    -0.699798758004E+02   -0.96823E+02   -0.94256E+02252576   0.488E+01
DAV:   5    -0.716058468699E+02   -0.16260E+01   -0.16219E+01250472   0.685E+00
DAV:   6    -0.716541531184E+02   -0.48306E-01   -0.48303E-01249984   0.125E+00
DAV:   7    -0.716575102648E+02   -0.33571E-02   -0.33571E-02267264   0.319E-01    0.133E+01
DAV:   8    -0.660570948403E+02    0.56004E+01   -0.31292E+01242608   0.143E+01    0.665E+00
DAV:   9    -0.658385272986E+02    0.21857E+00   -0.11924E+00243352   0.303E+00    0.384E+00
DAV:  10    -0.657697185120E+02    0.68809E-01   -0.31878E-01243928   0.250E+00    0.512E-01
DAV:  11    -0.657670229041E+02    0.26956E-02   -0.74202E-02248344   0.146E+00    0.185E-01
DAV:  12    -0.657671236339E+02   -0.10073E-03   -0.99790E-03245864   0.245E-01    0.104E-01
DAV:  13    -0.657671781633E+02   -0.54529E-04   -0.14458E-03245328   0.165E-01    0.384E-02
DAV:  14    -0.657671996013E+02   -0.21438E-04   -0.25749E-04247840   0.720E-02    0.222E-02
DAV:  15    -0.657671857835E+02    0.13818E-04   -0.79376E-05248016   0.356E-02    0.501E-03
DAV:  16    -0.657671832445E+02    0.25389E-05   -0.66805E-06227544   0.927E-03    0.297E-03
DAV:  17    -0.657671816737E+02    0.15708E-05   -0.11729E-06125424   0.417E-03    0.709E-04
DAV:  18    -0.657671816083E+02    0.65396E-07   -0.17866E-07125136   0.167E-03
   1 F= -.65767182E+02 E0= -.65766937E+02  d E =-.980316E-03
 PROFILE, used timers:     256
srun: Job 11490425 step creation temporarily disabled, retrying (Requested nodes are busy)
srun: Step created for StepId=11490425.6
 running on    8 total cores
 distrk:  each k-point on    2 cores,    4 groups
 distr:  one band on    1 cores,    2 groups
 OpenACC runtime initialized ...    4 GPUs detected
 vasp.6.2.1 16May21 (build Jun 30 2023 13:57:28) complex                         
 POSCAR found :  1 types and      64 ions
 Reading from existing POTCAR
 scaLAPACK will be used selectively (only on CPU)
 -----------------------------------------------------------------------------
|                                                                             |
|           W    W    AA    RRRRR   N    N  II  N    N   GGGG   !!!           |
|           W    W   A  A   R    R  NN   N  II  NN   N  G    G  !!!           |
|           W    W  A    A  R    R  N N  N  II  N N  N  G       !!!           |
|           W WW W  AAAAAA  RRRRR   N  N N  II  N  N N  G  GGG   !            |
|           WW  WW  A    A  R   R   N   NN  II  N   NN  G    G                |
|           W    W  A    A  R    R  N    N  II  N    N   GGGG   !!!           |
|                                                                             |
|     For optimal performance we recommend to set                             |
|       NCORE = 2 up to number-of-cores-per-socket                            |
|     NCORE specifies how many cores store one orbital (NPAR=cpu/NCORE).      |
|     This setting can greatly improve the performance of VASP for DFT.       |
|     The default, NCORE=1 might be grossly inefficient on modern             |
|     multi-core architectures or massively parallel machines. Do your        |
|     own testing! More info at https://www.vasp.at/wiki/index.php/NCORE      |
|     Unfortunately you need to use the default for GW and RPA                |
|     calculations (for HF NCORE is supported but not extensively tested      |
|     yet).                                                                   |
|                                                                             |
 -----------------------------------------------------------------------------

 Reading from existing POTCAR
 -----------------------------------------------------------------------------
|                                                                             |
|               ----> ADVICE to this user running VASP <----                  |
|                                                                             |
|     You have a (more or less) 'large supercell' and for larger cells it     |
|     might be more efficient to use real-space projection operators.         |
|     Therefore, try LREAL= Auto in the INCAR file.                           |
|     Mind: If you want to do very accurate calculations, keep the            |
|     reciprocal projection scheme (i.e. LREAL=.FALSE.).                      |
|                                                                             |
 -----------------------------------------------------------------------------

 LDA part: xc-table for Pade appr. of Perdew
 POSCAR, INCAR and KPOINTS ok, starting setup
 FFT: planning ...
 WAVECAR not read
 entering main loop
       N       E                     dE             d eps       ncg     rms          rms(c)
DAV:   1     0.173844403305E+05    0.17384E+05   -0.85080E+05277328   0.280E+03
DAV:   2     0.167071358438E+04   -0.15714E+05   -0.15342E+05238048   0.800E+02
DAV:   3     0.282800926137E+02   -0.16424E+04   -0.15427E+04248120   0.230E+02
DAV:   4    -0.693114167167E+02   -0.97592E+02   -0.95026E+02252248   0.491E+01
DAV:   5    -0.709297885319E+02   -0.16184E+01   -0.16146E+01251704   0.687E+00
DAV:   6    -0.709763569305E+02   -0.46568E-01   -0.46565E-01249744   0.122E+00
DAV:   7    -0.709795513409E+02   -0.31944E-02   -0.31944E-02266312   0.308E-01    0.135E+01
DAV:   8    -0.652736509182E+02    0.57059E+01   -0.31869E+01242560   0.145E+01    0.657E+00
DAV:   9    -0.650523436277E+02    0.22131E+00   -0.12420E+00243184   0.309E+00    0.379E+00
DAV:  10    -0.649824223483E+02    0.69921E-01   -0.31686E-01243760   0.264E+00    0.528E-01
DAV:  11    -0.649796340905E+02    0.27883E-02   -0.80177E-02245032   0.156E+00    0.187E-01
DAV:  12    -0.649797595322E+02   -0.12544E-03   -0.10662E-02249312   0.252E-01    0.103E-01
DAV:  13    -0.649798409072E+02   -0.81375E-04   -0.15618E-03244072   0.170E-01    0.339E-02
DAV:  14    -0.649798496658E+02   -0.87587E-05   -0.20110E-04245624   0.742E-02    0.181E-02
DAV:  15    -0.649798389026E+02    0.10763E-04   -0.53323E-05249024   0.301E-02    0.506E-03
DAV:  16    -0.649798350006E+02    0.39020E-05   -0.66043E-06228568   0.103E-02    0.205E-03
DAV:  17    -0.649798340180E+02    0.98265E-06   -0.84970E-07125248   0.434E-03
   1 F= -.64979834E+02 E0= -.64979602E+02  d E =-.927353E-03
 PROFILE, used timers:     256
srun: Job 11490425 step creation temporarily disabled, retrying (Requested nodes are busy)
srun: Step created for StepId=11490425.7
 running on    8 total cores
 distrk:  each k-point on    2 cores,    4 groups
 distr:  one band on    1 cores,    2 groups
 OpenACC runtime initialized ...    4 GPUs detected
 vasp.6.2.1 16May21 (build Jun 30 2023 13:57:28) complex                         
 POSCAR found :  1 types and      64 ions
 Reading from existing POTCAR
 scaLAPACK will be used selectively (only on CPU)
 -----------------------------------------------------------------------------
|                                                                             |
|           W    W    AA    RRRRR   N    N  II  N    N   GGGG   !!!           |
|           W    W   A  A   R    R  NN   N  II  NN   N  G    G  !!!           |
|           W    W  A    A  R    R  N N  N  II  N N  N  G       !!!           |
|           W WW W  AAAAAA  RRRRR   N  N N  II  N  N N  G  GGG   !            |
|           WW  WW  A    A  R   R   N   NN  II  N   NN  G    G                |
|           W    W  A    A  R    R  N    N  II  N    N   GGGG   !!!           |
|                                                                             |
|     For optimal performance we recommend to set                             |
|       NCORE = 2 up to number-of-cores-per-socket                            |
|     NCORE specifies how many cores store one orbital (NPAR=cpu/NCORE).      |
|     This setting can greatly improve the performance of VASP for DFT.       |
|     The default, NCORE=1 might be grossly inefficient on modern             |
|     multi-core architectures or massively parallel machines. Do your        |
|     own testing! More info at https://www.vasp.at/wiki/index.php/NCORE      |
|     Unfortunately you need to use the default for GW and RPA                |
|     calculations (for HF NCORE is supported but not extensively tested      |
|     yet).                                                                   |
|                                                                             |
 -----------------------------------------------------------------------------

 Reading from existing POTCAR
 -----------------------------------------------------------------------------
|                                                                             |
|               ----> ADVICE to this user running VASP <----                  |
|                                                                             |
|     You have a (more or less) 'large supercell' and for larger cells it     |
|     might be more efficient to use real-space projection operators.         |
|     Therefore, try LREAL= Auto in the INCAR file.                           |
|     Mind: If you want to do very accurate calculations, keep the            |
|     reciprocal projection scheme (i.e. LREAL=.FALSE.).                      |
|                                                                             |
 -----------------------------------------------------------------------------

 LDA part: xc-table for Pade appr. of Perdew
 POSCAR, INCAR and KPOINTS ok, starting setup
 FFT: planning ...
 WAVECAR not read
 entering main loop
       N       E                     dE             d eps       ncg     rms          rms(c)
DAV:   1     0.178087994662E+05    0.17809E+05   -0.84244E+05276240   0.284E+03
DAV:   2     0.175361457142E+04   -0.16055E+05   -0.15670E+05238048   0.817E+02
DAV:   3     0.309548598469E+02   -0.17227E+04   -0.16199E+04247768   0.237E+02
DAV:   4    -0.707024596777E+02   -0.10166E+03   -0.99088E+02252620   0.508E+01
DAV:   5    -0.723652854616E+02   -0.16628E+01   -0.16589E+01251200   0.696E+00
DAV:   6    -0.724115121679E+02   -0.46227E-01   -0.46223E-01249400   0.122E+00
DAV:   7    -0.724146387401E+02   -0.31266E-02   -0.31265E-02263552   0.308E-01    0.143E+01
DAV:   8    -0.661706778751E+02    0.62440E+01   -0.34286E+01242568   0.151E+01    0.673E+00
DAV:   9    -0.659240682307E+02    0.24661E+00   -0.12712E+00243456   0.294E+00    0.386E+00
DAV:  10    -0.658436549258E+02    0.80413E-01   -0.27582E-01243736   0.219E+00    0.420E-01
DAV:  11    -0.658428237920E+02    0.83113E-03   -0.60662E-02245752   0.130E+00    0.165E-01
DAV:  12    -0.658428668792E+02   -0.43087E-04   -0.68843E-03245488   0.234E-01    0.884E-02
DAV:  13    -0.658429454056E+02   -0.78526E-04   -0.95970E-04246352   0.118E-01    0.289E-02
DAV:  14    -0.658429407285E+02    0.46771E-05   -0.14142E-04245880   0.692E-02    0.147E-02
DAV:  15    -0.658429329057E+02    0.78228E-05   -0.36021E-05248624   0.215E-02    0.447E-03
DAV:  16    -0.658429274356E+02    0.54701E-05   -0.34544E-06177008   0.559E-03    0.160E-03
DAV:  17    -0.658429276466E+02   -0.21103E-06   -0.46073E-07125352   0.331E-03
   1 F= -.65842928E+02 E0= -.65842742E+02  d E =-.742200E-03
 PROFILE, used timers:     256
cp: cannot stat 'POSCAR38': No such file or directory
srun: Job 11490425 step creation temporarily disabled, retrying (Requested nodes are busy)
srun: Step created for StepId=11490425.8
 running on    8 total cores
 distrk:  each k-point on    2 cores,    4 groups
 distr:  one band on    1 cores,    2 groups
 OpenACC runtime initialized ...    4 GPUs detected
 vasp.6.2.1 16May21 (build Jun 30 2023 13:57:28) complex                         
 -----------------------------------------------------------------------------
|                                                                             |
|     EEEEEEE  RRRRRR   RRRRRR   OOOOOOO  RRRRRR      ###     ###     ###     |
|     E        R     R  R     R  O     O  R     R     ###     ###     ###     |
|     E        R     R  R     R  O     O  R     R     ###     ###     ###     |
|     EEEEE    RRRRRR   RRRRRR   O     O  RRRRRR       #       #       #      |
|     E        R   R    R   R    O     O  R   R                               |
|     E        R    R   R    R   O     O  R    R      ###     ###     ###     |
|     EEEEEEE  R     R  R     R  OOOOOOO  R     R     ###     ###     ###     |
|                                                                             |
|     ERROR: the following files does not exist POSCAR                        |
|                                                                             |
|       ---->  I REFUSE TO CONTINUE WITH THIS SICK JOB ... BYE!!! <----       |
|                                                                             |
 -----------------------------------------------------------------------------

Warning: ieee_invalid is signaling
Warning: ieee_divide_by_zero is signaling
Warning: ieee_inexact is signaling
    1
Warning: ieee_invalid is signaling
Warning: ieee_divide_by_zero is signaling
Warning: ieee_inexact is signaling
    1
Warning: ieee_invalid is signaling
Warning: ieee_divide_by_zero is signaling
Warning: ieee_inexact is signaling
    1
Warning: ieee_invalid is signaling
Warning: ieee_divide_by_zero is signaling
Warning: ieee_inexact is signaling
    1
Warning: ieee_invalid is signaling
Warning: ieee_divide_by_zero is signaling
Warning: ieee_inexact is signaling
    1
Warning: ieee_invalid is signaling
Warning: ieee_divide_by_zero is signaling
Warning: ieee_inexact is signaling
    1
Warning: ieee_invalid is signaling
Warning: ieee_divide_by_zero is signaling
Warning: ieee_inexact is signaling
    1
Warning: ieee_invalid is signaling
Warning: ieee_divide_by_zero is signaling
Warning: ieee_inexact is signaling
    1
srun: error: nid008573: tasks 4,6-7: Exited with exit code 1
srun: Terminating StepId=11490425.8
srun: error: nid008421: tasks 0-1,3: Exited with exit code 1
srun: error: nid008573: task 5: Exited with exit code 1
srun: error: nid008421: task 2: Exited with exit code 1
srun: Job 11490425 step creation temporarily disabled, retrying (Requested nodes are busy)
srun: Step created for StepId=11490425.9
 running on    8 total cores
 distrk:  each k-point on    2 cores,    4 groups
 distr:  one band on    1 cores,    2 groups
 OpenACC runtime initialized ...    4 GPUs detected
 vasp.6.2.1 16May21 (build Jun 30 2023 13:57:28) complex                         
 POSCAR found :  1 types and      64 ions
 Reading from existing POTCAR
 scaLAPACK will be used selectively (only on CPU)
 -----------------------------------------------------------------------------
|                                                                             |
|           W    W    AA    RRRRR   N    N  II  N    N   GGGG   !!!           |
|           W    W   A  A   R    R  NN   N  II  NN   N  G    G  !!!           |
|           W    W  A    A  R    R  N N  N  II  N N  N  G       !!!           |
|           W WW W  AAAAAA  RRRRR   N  N N  II  N  N N  G  GGG   !            |
|           WW  WW  A    A  R   R   N   NN  II  N   NN  G    G                |
|           W    W  A    A  R    R  N    N  II  N    N   GGGG   !!!           |
|                                                                             |
|     For optimal performance we recommend to set                             |
|       NCORE = 2 up to number-of-cores-per-socket                            |
|     NCORE specifies how many cores store one orbital (NPAR=cpu/NCORE).      |
|     This setting can greatly improve the performance of VASP for DFT.       |
|     The default, NCORE=1 might be grossly inefficient on modern             |
|     multi-core architectures or massively parallel machines. Do your        |
|     own testing! More info at https://www.vasp.at/wiki/index.php/NCORE      |
|     Unfortunately you need to use the default for GW and RPA                |
|     calculations (for HF NCORE is supported but not extensively tested      |
|     yet).                                                                   |
|                                                                             |
 -----------------------------------------------------------------------------

 Reading from existing POTCAR
 -----------------------------------------------------------------------------
|                                                                             |
|               ----> ADVICE to this user running VASP <----                  |
|                                                                             |
|     You have a (more or less) 'large supercell' and for larger cells it     |
|     might be more efficient to use real-space projection operators.         |
|     Therefore, try LREAL= Auto in the INCAR file.                           |
|     Mind: If you want to do very accurate calculations, keep the            |
|     reciprocal projection scheme (i.e. LREAL=.FALSE.).                      |
|                                                                             |
 -----------------------------------------------------------------------------

 LDA part: xc-table for Pade appr. of Perdew
 POSCAR, INCAR and KPOINTS ok, starting setup
 FFT: planning ...
 WAVECAR not read
 entering main loop
       N       E                     dE             d eps       ncg     rms          rms(c)
DAV:   1     0.172877575544E+05    0.17288E+05   -0.85256E+05277800   0.279E+03
DAV:   2     0.165099163069E+04   -0.15637E+05   -0.15267E+05238048   0.796E+02
DAV:   3     0.268637281308E+02   -0.16241E+04   -0.15263E+04248120   0.229E+02
DAV:   4    -0.697238135395E+02   -0.96588E+02   -0.94050E+02252400   0.486E+01
DAV:   5    -0.713388934226E+02   -0.16151E+01   -0.16112E+01252120   0.684E+00
DAV:   6    -0.713850779062E+02   -0.46184E-01   -0.46181E-01250128   0.121E+00
DAV:   7    -0.713882182246E+02   -0.31403E-02   -0.31403E-02266032   0.303E-01    0.134E+01
DAV:   8    -0.657821781559E+02    0.56060E+01   -0.31312E+01242616   0.142E+01    0.665E+00
DAV:   9    -0.655606043326E+02    0.22157E+00   -0.12109E+00243312   0.297E+00    0.383E+00
DAV:  10    -0.654898242961E+02    0.70780E-01   -0.30573E-01243968   0.250E+00    0.492E-01
DAV:  11    -0.654879915293E+02    0.18328E-02   -0.76866E-02245216   0.149E+00    0.183E-01
DAV:  12    -0.654881038697E+02   -0.11234E-03   -0.10037E-02248256   0.243E-01    0.103E-01
DAV:  13    -0.654881560616E+02   -0.52192E-04   -0.14880E-03246424   0.160E-01    0.343E-02
DAV:  14    -0.654881679450E+02   -0.11883E-04   -0.19162E-04251272   0.684E-02    0.200E-02
DAV:  15    -0.654881566012E+02    0.11344E-04   -0.61044E-05248728   0.316E-02    0.446E-03
DAV:  16    -0.654881538009E+02    0.28003E-05   -0.54109E-06226832   0.824E-03    0.234E-03
DAV:  17    -0.654881526816E+02    0.11193E-05   -0.81985E-07125256   0.406E-03    0.689E-04
DAV:  18    -0.654881526653E+02    0.16269E-07   -0.14164E-07125032   0.151E-03
   1 F= -.65488153E+02 E0= -.65488244E+02  d E =0.363342E-03
 PROFILE, used timers:     256
srun: Job 11490425 step creation temporarily disabled, retrying (Requested nodes are busy)
srun: Step created for StepId=11490425.10
 running on    8 total cores
 distrk:  each k-point on    2 cores,    4 groups
 distr:  one band on    1 cores,    2 groups
 OpenACC runtime initialized ...    4 GPUs detected
 vasp.6.2.1 16May21 (build Jun 30 2023 13:57:28) complex                         
 POSCAR found :  1 types and      64 ions
 Reading from existing POTCAR
 scaLAPACK will be used selectively (only on CPU)
 -----------------------------------------------------------------------------
|                                                                             |
|           W    W    AA    RRRRR   N    N  II  N    N   GGGG   !!!           |
|           W    W   A  A   R    R  NN   N  II  NN   N  G    G  !!!           |
|           W    W  A    A  R    R  N N  N  II  N N  N  G       !!!           |
|           W WW W  AAAAAA  RRRRR   N  N N  II  N  N N  G  GGG   !            |
|           WW  WW  A    A  R   R   N   NN  II  N   NN  G    G                |
|           W    W  A    A  R    R  N    N  II  N    N   GGGG   !!!           |
|                                                                             |
|     For optimal performance we recommend to set                             |
|       NCORE = 2 up to number-of-cores-per-socket                            |
|     NCORE specifies how many cores store one orbital (NPAR=cpu/NCORE).      |
|     This setting can greatly improve the performance of VASP for DFT.       |
|     The default, NCORE=1 might be grossly inefficient on modern             |
|     multi-core architectures or massively parallel machines. Do your        |
|     own testing! More info at https://www.vasp.at/wiki/index.php/NCORE      |
|     Unfortunately you need to use the default for GW and RPA                |
|     calculations (for HF NCORE is supported but not extensively tested      |
|     yet).                                                                   |
|                                                                             |
 -----------------------------------------------------------------------------

 Reading from existing POTCAR
 -----------------------------------------------------------------------------
|                                                                             |
|               ----> ADVICE to this user running VASP <----                  |
|                                                                             |
|     You have a (more or less) 'large supercell' and for larger cells it     |
|     might be more efficient to use real-space projection operators.         |
|     Therefore, try LREAL= Auto in the INCAR file.                           |
|     Mind: If you want to do very accurate calculations, keep the            |
|     reciprocal projection scheme (i.e. LREAL=.FALSE.).                      |
|                                                                             |
 -----------------------------------------------------------------------------

 LDA part: xc-table for Pade appr. of Perdew
 POSCAR, INCAR and KPOINTS ok, starting setup
 FFT: planning ...
 WAVECAR not read
 entering main loop
       N       E                     dE             d eps       ncg     rms          rms(c)
DAV:   1     0.172297836496E+05    0.17230E+05   -0.85358E+05277824   0.278E+03
DAV:   2     0.163962043889E+04   -0.15590E+05   -0.15222E+05238048   0.794E+02
DAV:   3     0.262962718425E+02   -0.16133E+04   -0.15156E+04248120   0.228E+02
DAV:   4    -0.698536518131E+02   -0.96150E+02   -0.93611E+02252492   0.483E+01
DAV:   5    -0.714701930733E+02   -0.16165E+01   -0.16127E+01252320   0.683E+00
DAV:   6    -0.715162115917E+02   -0.46019E-01   -0.46016E-01250536   0.120E+00
DAV:   7    -0.715193048855E+02   -0.30933E-02   -0.30933E-02265928   0.300E-01    0.132E+01
DAV:   8    -0.660151933442E+02    0.55041E+01   -0.30882E+01242640   0.141E+01    0.661E+00
DAV:   9    -0.658013603531E+02    0.21383E+00   -0.11889E+00243072   0.295E+00    0.382E+00
DAV:  10    -0.657330043510E+02    0.68356E-01   -0.30143E-01243912   0.253E+00    0.494E-01
DAV:  11    -0.657310940294E+02    0.19103E-02   -0.76209E-02245280   0.149E+00    0.183E-01
DAV:  12    -0.657312756564E+02   -0.18163E-03   -0.98927E-03245936   0.247E-01    0.103E-01
DAV:  13    -0.657313444040E+02   -0.68748E-04   -0.15262E-03245080   0.171E-01    0.354E-02
DAV:  14    -0.657313573532E+02   -0.12949E-04   -0.21655E-04245264   0.720E-02    0.202E-02
DAV:  15    -0.657313453219E+02    0.12031E-04   -0.64946E-05248616   0.324E-02    0.471E-03
DAV:  16    -0.657313424033E+02    0.29186E-05   -0.65691E-06225040   0.965E-03    0.222E-03
DAV:  17    -0.657313412144E+02    0.11889E-05   -0.87679E-07125264   0.420E-03    0.641E-04
DAV:  18    -0.657313412331E+02   -0.18743E-07   -0.15536E-07125072   0.170E-03
   1 F= -.65731341E+02 E0= -.65731407E+02  d E =0.264271E-03
 PROFILE, used timers:     256
srun: Job 11490425 step creation temporarily disabled, retrying (Requested nodes are busy)
srun: Step created for StepId=11490425.11
 running on    8 total cores
 distrk:  each k-point on    2 cores,    4 groups
 distr:  one band on    1 cores,    2 groups
 OpenACC runtime initialized ...    4 GPUs detected
 vasp.6.2.1 16May21 (build Jun 30 2023 13:57:28) complex                         
 POSCAR found :  1 types and      64 ions
 Reading from existing POTCAR
 scaLAPACK will be used selectively (only on CPU)
 -----------------------------------------------------------------------------
|                                                                             |
|           W    W    AA    RRRRR   N    N  II  N    N   GGGG   !!!           |
|           W    W   A  A   R    R  NN   N  II  NN   N  G    G  !!!           |
|           W    W  A    A  R    R  N N  N  II  N N  N  G       !!!           |
|           W WW W  AAAAAA  RRRRR   N  N N  II  N  N N  G  GGG   !            |
|           WW  WW  A    A  R   R   N   NN  II  N   NN  G    G                |
|           W    W  A    A  R    R  N    N  II  N    N   GGGG   !!!           |
|                                                                             |
|     For optimal performance we recommend to set                             |
|       NCORE = 2 up to number-of-cores-per-socket                            |
|     NCORE specifies how many cores store one orbital (NPAR=cpu/NCORE).      |
|     This setting can greatly improve the performance of VASP for DFT.       |
|     The default, NCORE=1 might be grossly inefficient on modern             |
|     multi-core architectures or massively parallel machines. Do your        |
|     own testing! More info at https://www.vasp.at/wiki/index.php/NCORE      |
|     Unfortunately you need to use the default for GW and RPA                |
|     calculations (for HF NCORE is supported but not extensively tested      |
|     yet).                                                                   |
|                                                                             |
 -----------------------------------------------------------------------------

 Reading from existing POTCAR
 -----------------------------------------------------------------------------
|                                                                             |
|               ----> ADVICE to this user running VASP <----                  |
|                                                                             |
|     You have a (more or less) 'large supercell' and for larger cells it     |
|     might be more efficient to use real-space projection operators.         |
|     Therefore, try LREAL= Auto in the INCAR file.                           |
|     Mind: If you want to do very accurate calculations, keep the            |
|     reciprocal projection scheme (i.e. LREAL=.FALSE.).                      |
|                                                                             |
 -----------------------------------------------------------------------------

 LDA part: xc-table for Pade appr. of Perdew
 POSCAR, INCAR and KPOINTS ok, starting setup
 FFT: planning ...
 WAVECAR not read
 entering main loop
       N       E                     dE             d eps       ncg     rms          rms(c)
DAV:   1     0.176882909360E+05    0.17688E+05   -0.84461E+05276480   0.283E+03
DAV:   2     0.172832644700E+04   -0.15960E+05   -0.15579E+05238048   0.812E+02
DAV:   3     0.301764235307E+02   -0.16982E+04   -0.15962E+04247640   0.235E+02
DAV:   4    -0.704252094642E+02   -0.10060E+03   -0.98005E+02252760   0.503E+01
DAV:   5    -0.720910493586E+02   -0.16658E+01   -0.16618E+01251352   0.693E+00
DAV:   6    -0.721374093902E+02   -0.46360E-01   -0.46356E-01249704   0.121E+00
DAV:   7    -0.721405261589E+02   -0.31168E-02   -0.31167E-02263792   0.306E-01    0.139E+01
DAV:   8    -0.661185502718E+02    0.60220E+01   -0.33059E+01242648   0.148E+01    0.672E+00
DAV:   9    -0.658815059978E+02    0.23704E+00   -0.12467E+00243560   0.300E+00    0.386E+00
DAV:  10    -0.658032618012E+02    0.78244E-01   -0.29086E-01243856   0.236E+00    0.456E-01
DAV:  11    -0.658018526558E+02    0.14091E-02   -0.68708E-02246592   0.140E+00    0.171E-01
DAV:  12    -0.658019399727E+02   -0.87317E-04   -0.81770E-03245568   0.233E-01    0.944E-02
DAV:  13    -0.658020116400E+02   -0.71667E-04   -0.11197E-03246344   0.137E-01    0.318E-02
DAV:  14    -0.658020128768E+02   -0.12369E-05   -0.16992E-04245464   0.703E-02    0.170E-02
DAV:  15    -0.658020042125E+02    0.86643E-05   -0.47534E-05249584   0.246E-02    0.487E-03
DAV:  16    -0.658019995770E+02    0.46355E-05   -0.40980E-06198136   0.717E-03    0.201E-03
DAV:  17    -0.658019988963E+02    0.68068E-06   -0.69647E-07125360   0.406E-03
   1 F= -.65801999E+02 E0= -.65802098E+02  d E =0.394877E-03
 PROFILE, used timers:     256
srun: Job 11490425 step creation temporarily disabled, retrying (Requested nodes are busy)
srun: Step created for StepId=11490425.12
 running on    8 total cores
 distrk:  each k-point on    2 cores,    4 groups
 distr:  one band on    1 cores,    2 groups
 OpenACC runtime initialized ...    4 GPUs detected
 vasp.6.2.1 16May21 (build Jun 30 2023 13:57:28) complex                         
 POSCAR found :  1 types and      64 ions
 Reading from existing POTCAR
 scaLAPACK will be used selectively (only on CPU)
 -----------------------------------------------------------------------------
|                                                                             |
|           W    W    AA    RRRRR   N    N  II  N    N   GGGG   !!!           |
|           W    W   A  A   R    R  NN   N  II  NN   N  G    G  !!!           |
|           W    W  A    A  R    R  N N  N  II  N N  N  G       !!!           |
|           W WW W  AAAAAA  RRRRR   N  N N  II  N  N N  G  GGG   !            |
|           WW  WW  A    A  R   R   N   NN  II  N   NN  G    G                |
|           W    W  A    A  R    R  N    N  II  N    N   GGGG   !!!           |
|                                                                             |
|     For optimal performance we recommend to set                             |
|       NCORE = 2 up to number-of-cores-per-socket                            |
|     NCORE specifies how many cores store one orbital (NPAR=cpu/NCORE).      |
|     This setting can greatly improve the performance of VASP for DFT.       |
|     The default, NCORE=1 might be grossly inefficient on modern             |
|     multi-core architectures or massively parallel machines. Do your        |
|     own testing! More info at https://www.vasp.at/wiki/index.php/NCORE      |
|     Unfortunately you need to use the default for GW and RPA                |
|     calculations (for HF NCORE is supported but not extensively tested      |
|     yet).                                                                   |
|                                                                             |
 -----------------------------------------------------------------------------

 Reading from existing POTCAR
 -----------------------------------------------------------------------------
|                                                                             |
|               ----> ADVICE to this user running VASP <----                  |
|                                                                             |
|     You have a (more or less) 'large supercell' and for larger cells it     |
|     might be more efficient to use real-space projection operators.         |
|     Therefore, try LREAL= Auto in the INCAR file.                           |
|     Mind: If you want to do very accurate calculations, keep the            |
|     reciprocal projection scheme (i.e. LREAL=.FALSE.).                      |
|                                                                             |
 -----------------------------------------------------------------------------

 LDA part: xc-table for Pade appr. of Perdew
 POSCAR, INCAR and KPOINTS ok, starting setup
 FFT: planning ...
 WAVECAR not read
 entering main loop
       N       E                     dE             d eps       ncg     rms          rms(c)
DAV:   1     0.172857849462E+05    0.17286E+05   -0.85254E+05277776   0.278E+03
DAV:   2     0.165095458187E+04   -0.15635E+05   -0.15265E+05238048   0.796E+02
DAV:   3     0.268746093026E+02   -0.16241E+04   -0.15257E+04248184   0.229E+02
DAV:   4    -0.699355044135E+02   -0.96810E+02   -0.94261E+02252536   0.487E+01
DAV:   5    -0.715478769685E+02   -0.16124E+01   -0.16085E+01250040   0.685E+00
DAV:   6    -0.715968840049E+02   -0.49007E-01   -0.49004E-01249728   0.126E+00
DAV:   7    -0.716003107218E+02   -0.34267E-02   -0.34267E-02268112   0.323E-01    0.133E+01
DAV:   8    -0.660263011859E+02    0.55740E+01   -0.31095E+01242536   0.143E+01    0.665E+00
DAV:   9    -0.658088359885E+02    0.21747E+00   -0.12082E+00243536   0.309E+00    0.385E+00
DAV:  10    -0.657395040495E+02    0.69332E-01   -0.31994E-01243448   0.260E+00    0.520E-01
DAV:  11    -0.657367865095E+02    0.27175E-02   -0.80143E-02246192   0.153E+00    0.184E-01
DAV:  12    -0.657369682244E+02   -0.18171E-03   -0.10703E-02245984   0.252E-01    0.105E-01
DAV:  13    -0.657370374421E+02   -0.69218E-04   -0.15186E-03245896   0.168E-01    0.379E-02
DAV:  14    -0.657370570924E+02   -0.19650E-04   -0.23850E-04250616   0.716E-02    0.216E-02
DAV:  15    -0.657370440354E+02    0.13057E-04   -0.80303E-05249008   0.355E-02    0.591E-03
DAV:  16    -0.657370407119E+02    0.33235E-05   -0.80709E-06219200   0.106E-02    0.282E-03
DAV:  17    -0.657370390100E+02    0.17019E-05   -0.13161E-06125320   0.450E-03    0.683E-04
DAV:  18    -0.657370390273E+02   -0.17317E-07   -0.18230E-07125160   0.186E-03
   1 F= -.65737039E+02 E0= -.65737059E+02  d E =0.813792E-04
 PROFILE, used timers:     256
 running on    8 total cores
 distrk:  each k-point on    2 cores,    4 groups
 distr:  one band on    1 cores,    2 groups
 OpenACC runtime initialized ...    4 GPUs detected
 vasp.6.2.1 16May21 (build Jun 30 2023 13:57:28) complex                         
 POSCAR found :  1 types and      64 ions
 Reading from existing POTCAR
 scaLAPACK will be used selectively (only on CPU)
 -----------------------------------------------------------------------------
|                                                                             |
|           W    W    AA    RRRRR   N    N  II  N    N   GGGG   !!!           |
|           W    W   A  A   R    R  NN   N  II  NN   N  G    G  !!!           |
|           W    W  A    A  R    R  N N  N  II  N N  N  G       !!!           |
|           W WW W  AAAAAA  RRRRR   N  N N  II  N  N N  G  GGG   !            |
|           WW  WW  A    A  R   R   N   NN  II  N   NN  G    G                |
|           W    W  A    A  R    R  N    N  II  N    N   GGGG   !!!           |
|                                                                             |
|     For optimal performance we recommend to set                             |
|       NCORE = 2 up to number-of-cores-per-socket                            |
|     NCORE specifies how many cores store one orbital (NPAR=cpu/NCORE).      |
|     This setting can greatly improve the performance of VASP for DFT.       |
|     The default, NCORE=1 might be grossly inefficient on modern             |
|     multi-core architectures or massively parallel machines. Do your        |
|     own testing! More info at https://www.vasp.at/wiki/index.php/NCORE      |
|     Unfortunately you need to use the default for GW and RPA                |
|     calculations (for HF NCORE is supported but not extensively tested      |
|     yet).                                                                   |
|                                                                             |
 -----------------------------------------------------------------------------

 Reading from existing POTCAR
 -----------------------------------------------------------------------------
|                                                                             |
|               ----> ADVICE to this user running VASP <----                  |
|                                                                             |
|     You have a (more or less) 'large supercell' and for larger cells it     |
|     might be more efficient to use real-space projection operators.         |
|     Therefore, try LREAL= Auto in the INCAR file.                           |
|     Mind: If you want to do very accurate calculations, keep the            |
|     reciprocal projection scheme (i.e. LREAL=.FALSE.).                      |
|                                                                             |
 -----------------------------------------------------------------------------

 LDA part: xc-table for Pade appr. of Perdew
 POSCAR, INCAR and KPOINTS ok, starting setup
 FFT: planning ...
 WAVECAR not read
 entering main loop
       N       E                     dE             d eps       ncg     rms          rms(c)
DAV:   1     0.172491338618E+05    0.17249E+05   -0.85293E+05277792   0.278E+03
DAV:   2     0.164393280352E+04   -0.15605E+05   -0.15237E+05238048   0.795E+02
DAV:   3     0.262050377625E+02   -0.16177E+04   -0.15196E+04247992   0.228E+02
DAV:   4    -0.703085778373E+02   -0.96514E+02   -0.93974E+02252572   0.486E+01
DAV:   5    -0.719203767937E+02   -0.16118E+01   -0.16079E+01250856   0.682E+00
DAV:   6    -0.719679291215E+02   -0.47552E-01   -0.47549E-01249832   0.124E+00
DAV:   7    -0.719712409260E+02   -0.33118E-02   -0.33118E-02266600   0.316E-01    0.132E+01
DAV:   8    -0.665090387219E+02    0.54622E+01   -0.30665E+01242480   0.141E+01    0.664E+00
DAV:   9    -0.662965901009E+02    0.21245E+00   -0.11601E+00243424   0.298E+00    0.384E+00
DAV:  10    -0.662291778246E+02    0.67412E-01   -0.31156E-01243408   0.242E+00    0.496E-01
DAV:  11    -0.662267132848E+02    0.24645E-02   -0.69746E-02246328   0.139E+00    0.183E-01
DAV:  12    -0.662268764828E+02   -0.16320E-03   -0.94260E-03248592   0.232E-01    0.104E-01
DAV:  13    -0.662269186577E+02   -0.42175E-04   -0.14635E-03246424   0.164E-01    0.359E-02
DAV:  14    -0.662269369946E+02   -0.18337E-04   -0.23961E-04246792   0.666E-02    0.224E-02
DAV:  15    -0.662269239029E+02    0.13092E-04   -0.84378E-05248600   0.351E-02    0.575E-03
DAV:  16    -0.662269208316E+02    0.30713E-05   -0.67016E-06216824   0.933E-03    0.283E-03
DAV:  17    -0.662269193205E+02    0.15111E-05   -0.12372E-06125296   0.389E-03    0.627E-04
DAV:  18    -0.662269193222E+02   -0.17317E-08   -0.14922E-07125104   0.165E-03
   1 F= -.66226919E+02 E0= -.66226725E+02  d E =-.779024E-03
 PROFILE, used timers:     256
srun: Job 11490425 step creation temporarily disabled, retrying (Requested nodes are busy)
srun: Step created for StepId=11490425.14
 running on    8 total cores
 distrk:  each k-point on    2 cores,    4 groups
 distr:  one band on    1 cores,    2 groups
 OpenACC runtime initialized ...    4 GPUs detected
 vasp.6.2.1 16May21 (build Jun 30 2023 13:57:28) complex                         
 POSCAR found :  1 types and      64 ions
 Reading from existing POTCAR
 scaLAPACK will be used selectively (only on CPU)
 -----------------------------------------------------------------------------
|                                                                             |
|           W    W    AA    RRRRR   N    N  II  N    N   GGGG   !!!           |
|           W    W   A  A   R    R  NN   N  II  NN   N  G    G  !!!           |
|           W    W  A    A  R    R  N N  N  II  N N  N  G       !!!           |
|           W WW W  AAAAAA  RRRRR   N  N N  II  N  N N  G  GGG   !            |
|           WW  WW  A    A  R   R   N   NN  II  N   NN  G    G                |
|           W    W  A    A  R    R  N    N  II  N    N   GGGG   !!!           |
|                                                                             |
|     For optimal performance we recommend to set                             |
|       NCORE = 2 up to number-of-cores-per-socket                            |
|     NCORE specifies how many cores store one orbital (NPAR=cpu/NCORE).      |
|     This setting can greatly improve the performance of VASP for DFT.       |
|     The default, NCORE=1 might be grossly inefficient on modern             |
|     multi-core architectures or massively parallel machines. Do your        |
|     own testing! More info at https://www.vasp.at/wiki/index.php/NCORE      |
|     Unfortunately you need to use the default for GW and RPA                |
|     calculations (for HF NCORE is supported but not extensively tested      |
|     yet).                                                                   |
|                                                                             |
 -----------------------------------------------------------------------------

 Reading from existing POTCAR
 -----------------------------------------------------------------------------
|                                                                             |
|               ----> ADVICE to this user running VASP <----                  |
|                                                                             |
|     You have a (more or less) 'large supercell' and for larger cells it     |
|     might be more efficient to use real-space projection operators.         |
|     Therefore, try LREAL= Auto in the INCAR file.                           |
|     Mind: If you want to do very accurate calculations, keep the            |
|     reciprocal projection scheme (i.e. LREAL=.FALSE.).                      |
|                                                                             |
 -----------------------------------------------------------------------------

 LDA part: xc-table for Pade appr. of Perdew
 POSCAR, INCAR and KPOINTS ok, starting setup
 FFT: planning ...
 WAVECAR not read
 entering main loop
       N       E                     dE             d eps       ncg     rms          rms(c)
DAV:   1     0.176808871339E+05    0.17681E+05   -0.84482E+05276664   0.283E+03
DAV:   2     0.172877887427E+04   -0.15952E+05   -0.15571E+05238048   0.812E+02
DAV:   3     0.303337828083E+02   -0.16984E+04   -0.15965E+04247768   0.235E+02
DAV:   4    -0.702317139401E+02   -0.10057E+03   -0.97968E+02252616   0.503E+01
DAV:   5    -0.719067431851E+02   -0.16750E+01   -0.16710E+01250872   0.694E+00
DAV:   6    -0.719542843967E+02   -0.47541E-01   -0.47537E-01249504   0.123E+00
DAV:   7    -0.719574967154E+02   -0.32123E-02   -0.32123E-02264688   0.313E-01    0.140E+01
DAV:   8    -0.659170663069E+02    0.60404E+01   -0.33317E+01242512   0.148E+01    0.669E+00
DAV:   9    -0.656779845851E+02    0.23908E+00   -0.12322E+00243512   0.286E+00    0.384E+00
DAV:  10    -0.655991257294E+02    0.78859E-01   -0.27157E-01243312   0.209E+00    0.404E-01
DAV:  11    -0.655986172817E+02    0.50845E-03   -0.57649E-02246376   0.127E+00    0.163E-01
DAV:  12    -0.655987224068E+02   -0.10513E-03   -0.65033E-03246328   0.242E-01    0.871E-02
DAV:  13    -0.655988083881E+02   -0.85981E-04   -0.95519E-04246712   0.121E-01    0.287E-02
DAV:  14    -0.655988028164E+02    0.55717E-05   -0.15510E-04245264   0.691E-02    0.154E-02
DAV:  15    -0.655987964800E+02    0.63364E-05   -0.41598E-05249616   0.210E-02    0.508E-03
DAV:  16    -0.655987909402E+02    0.55398E-05   -0.34323E-06175640   0.614E-03    0.175E-03
DAV:  17    -0.655987908316E+02    0.10860E-06   -0.51306E-07125344   0.358E-03
   1 F= -.65598791E+02 E0= -.65598914E+02  d E =0.491302E-03
 PROFILE, used timers:     256
