LAMMPS (29 Sep 2021 - Update 1)
Reading data file ...
  triclinic box = (0.0000000 0.0000000 0.0000000) to (10.560000 9.1452283 10.020000) with tilt (0.0000000 0.0000000 0.0000000)
  1 by 1 by 1 MPI processor grid
  reading atoms ...
  64 atoms
  read_data CPU = 0.001 seconds
Neighbor list info ...
  update every 1 steps, delay 0 steps, check yes
  max neighbors/atom: 2000, page size: 100000
  master list distance cutoff = 7
  ghost atom cutoff = 7
  binsize = 3.5, bins = 4 3 3
  1 neighbor lists, perpetual/occasional/extra = 1 0 0
  (1) pair mlip, perpetual
      attributes: full, newton on
      pair build: full/bin/atomonly
      stencil: full/bin/3d
      bin: standard
Setting up Verlet run ...
  Unit style    : metal
  Current step  : 0
  Time step     : 0.001
Per MPI rank memory allocation (min/avg/max) = 3.089 | 3.089 | 3.089 Mbytes
Step Time Temp Volume Press 
       0            0         1380    967.66758    11171.684 
       1        0.001    1379.0778    967.66758    11203.154 
       2        0.002    1376.3169    967.66758     11297.35 
       3        0.003    1371.7321    967.66758    11453.022 
       4        0.004    1365.3462    967.66758    11666.052 
       5        0.005    1357.1895    967.66758    11933.631 
       6        0.006     1347.299    967.66758    12254.157 
       7        0.007    1335.7182    967.66758    12626.411 
       8        0.008    1322.4963    967.66758    13051.216 
       9        0.009    1307.6885    967.66758    13529.383 
      10         0.01    1291.3557    967.66758    14059.138 
Loop time of 0.225234 on 1 procs for 10 steps with 64 atoms

Performance: 3.836 ns/day, 6.256 hours/ns, 44.398 timesteps/s
99.2% CPU use with 1 MPI tasks x no OpenMP threads

MPI task timing breakdown:
Section |  min time  |  avg time  |  max time  |%varavg| %total
---------------------------------------------------------------
Pair    | 0.22512    | 0.22512    | 0.22512    |   0.0 | 99.95
Neigh   | 0          | 0          | 0          |   0.0 |  0.00
Comm    | 3.5888e-05 | 3.5888e-05 | 3.5888e-05 |   0.0 |  0.02
Output  | 4.1531e-05 | 4.1531e-05 | 4.1531e-05 |   0.0 |  0.02
Modify  | 2.6943e-05 | 2.6943e-05 | 2.6943e-05 |   0.0 |  0.01
Other   |            | 1.139e-05  |            |       |  0.01

Nlocal:        64.0000 ave          64 max          64 min
Histogram: 1 0 0 0 0 0 0 0 0 0
Nghost:        886.000 ave         886 max         886 min
Histogram: 1 0 0 0 0 0 0 0 0 0
Neighs:         0.00000 ave           0 max           0 min
Histogram: 1 0 0 0 0 0 0 0 0 0
FullNghs:      6272.00 ave        6272 max        6272 min
Histogram: 1 0 0 0 0 0 0 0 0 0

Total # of neighbors = 6272
Ave neighs/atom = 98.000000
Neighbor list builds = 0
Dangerous builds = 0
Setting up Verlet run ...
  Unit style    : metal
  Current step  : 10
  Time step     : 0.001
Per MPI rank memory allocation (min/avg/max) = 3.089 | 3.089 | 3.089 Mbytes
Step Time Temp Volume Press 
      10         0.01    1291.3557    967.66758    14059.138 
      11        0.011    1273.5649    967.66758    14639.365 
      12        0.012    1254.3893    967.66758    15268.342 
      13        0.013    1233.9073    967.66758    15943.238 
      14        0.014    1212.2033    967.66758     16661.97 
      15        0.015    1189.3669    967.66758    17421.708 
      16        0.016    1165.4926    967.66758    18219.641 
      17        0.017    1140.6796    967.66758    19052.593 
      18        0.018    1115.0311    967.66758    19917.574 
      19        0.019    1088.6543    967.66758    20811.305 
      20         0.02    1061.6593    967.66758    21730.337 
      21        0.021    1034.1587    967.66758    22670.926 
      22        0.022    1006.2672    967.66758    23629.361 
      23        0.023    978.10062    967.66758     24601.88 
      24        0.024    949.77511    967.66758    25584.457 
      25        0.025    921.40624    967.66758    26571.846 
      26        0.026    893.10832    967.66758    27560.649 
      27        0.027     864.9941    967.66758    28548.231 
      28        0.028    837.17353    967.66758     29529.57 
      29        0.029    809.75297    967.66758    30502.105 
      30         0.03    782.83472    967.66758    31462.438 
      31        0.031    756.51611    967.66758    32407.281 
      32        0.032    730.88879    967.66758    33333.805 
      33        0.033    706.03748    967.66758    34235.305 
      34        0.034    682.03977    967.66758    35110.589 
      35        0.035    658.96618    967.66758    35956.966 
      36        0.036    636.87953    967.66758    36772.626 
      37        0.037    615.83483    967.66758    37556.119 
      38        0.038    595.87887    967.66758    38305.098 
      39        0.039    577.04995    967.66758    39018.175 
      40         0.04    559.37796    967.66758    39693.648 
      41        0.041    542.88451    967.66758    40331.557 
      42        0.042    527.58311    967.66758    40930.789 
      43        0.043     513.4793    967.66758    41490.944 
      44        0.044    500.57111    967.66758    42011.614 
      45        0.045    488.84941    967.66758    42492.818 
      46        0.046     478.2982    967.66758    42934.448 
      47        0.047     468.8952    967.66758    43335.981 
      48        0.048    460.61243    967.66758    43697.989 
      49        0.049    453.41678    967.66758     44021.35 
      50         0.05    447.27057    967.66758    44306.473 
      51        0.051    442.13219    967.66758    44554.992 
      52        0.052     437.9567    967.66758    44767.922 
      53        0.053    434.69628    967.66758     44946.03 
      54        0.054    432.30093    967.66758    45091.617 
      55        0.055      430.719    967.66758    45206.999 
      56        0.056     429.8976    967.66758    45292.878 
      57        0.057      429.783    967.66758    45350.702 
      58        0.058    430.32105    967.66758    45380.885 
      59        0.059    431.45777    967.66758    45387.571 
      60         0.06    433.13967    967.66758    45370.771 
      61        0.061    435.31351    967.66758    45329.248 
      62        0.062    437.92699    967.66758    45268.397 
      63        0.063    440.92939    967.66758    45191.765 
      64        0.064     444.2714    967.66758    45100.644 
      65        0.065    447.90518    967.66758    44995.857 
      66        0.066    451.78449    967.66758     44879.92 
      67        0.067    455.86493    967.66758    44754.958 
      68        0.068    460.10368    967.66758    44621.032 
      69        0.069    464.45956    967.66758      44479.1 
      70         0.07    468.89344    967.66758    44330.519 
      71        0.071    473.36837    967.66758    44179.033 
      72        0.072     477.8494    967.66758    44025.425 
      73        0.073    482.30326    967.66758    43869.676 
      74        0.074    486.69864    967.66758    43714.832 
      75        0.075    491.00618    967.66758    43560.824 
      76        0.076    495.19848    967.66758    43410.341 
      77        0.077    499.25021    967.66758    43265.068 
      78        0.078    503.13774    967.66758    43124.637 
      79        0.079    506.83921    967.66758    42990.376 
      80         0.08    510.33467    967.66758    42863.356 
      81        0.081    513.60599    967.66758     42744.51 
      82        0.082     516.6366    967.66758    42632.664 
      83        0.083    519.41157    967.66758    42529.428 
      84        0.084    521.91804    967.66758     42436.98 
      85        0.085    524.14507    967.66758    42354.596 
      86        0.086     526.0834    967.66758    42282.727 
      87        0.087    527.72509    967.66758    42218.706 
      88        0.088    529.06385    967.66758    42163.104 
      89        0.089    530.09552    967.66758    42116.856 
      90         0.09    530.81816    967.66758    42081.164 
      91        0.091    531.23187    967.66758    42057.648 
      92        0.092    531.33866    967.66758    42043.634 
      93        0.093    531.14262    967.66758    42040.029 
      94        0.094    530.64994    967.66758    42048.038 
      95        0.095    529.86887    967.66758    42066.903 
      96        0.096     528.8098    967.66758    42096.365 
      97        0.097    527.48535    967.66758    42135.307 
      98        0.098    525.91046    967.66758    42182.827 
      99        0.099     524.1023    967.66758    42239.094 
     100          0.1    522.08008    967.66758    42303.644 
Loop time of 2.06882 on 1 procs for 90 steps with 64 atoms

Performance: 3.759 ns/day, 6.385 hours/ns, 43.503 timesteps/s
99.8% CPU use with 1 MPI tasks x no OpenMP threads

MPI task timing breakdown:
Section |  min time  |  avg time  |  max time  |%varavg| %total
---------------------------------------------------------------
Pair    | 2.0677     | 2.0677     | 2.0677     |   0.0 | 99.94
Neigh   | 0.00022338 | 0.00022338 | 0.00022338 |   0.0 |  0.01
Comm    | 0.00033101 | 0.00033101 | 0.00033101 |   0.0 |  0.02
Output  | 0.00034773 | 0.00034773 | 0.00034773 |   0.0 |  0.02
Modify  | 0.00017285 | 0.00017285 | 0.00017285 |   0.0 |  0.01
Other   |            | 8.046e-05  |            |       |  0.00

Nlocal:        64.0000 ave          64 max          64 min
Histogram: 1 0 0 0 0 0 0 0 0 0
Nghost:        886.000 ave         886 max         886 min
Histogram: 1 0 0 0 0 0 0 0 0 0
Neighs:         0.00000 ave           0 max           0 min
Histogram: 1 0 0 0 0 0 0 0 0 0
FullNghs:      6082.00 ave        6082 max        6082 min
Histogram: 1 0 0 0 0 0 0 0 0 0

Total # of neighbors = 6082
Ave neighs/atom = 95.031250
Neighbor list builds = 1
Dangerous builds = 0
Setting up Verlet run ...
  Unit style    : metal
  Current step  : 100
  Time step     : 0.001
Per MPI rank memory allocation (min/avg/max) = 3.089 | 3.089 | 3.089 Mbytes
Step Time Temp Volume Press 
     100          0.1    522.08008    967.66758    42303.644 
     110         0.11    495.75462    967.66758    43093.733 
     120         0.12    481.72537    967.66758    43422.503 
     130         0.13    508.84052    967.66758    42553.982 
     140         0.14    574.23745    967.66758    40605.677 
     150         0.15    641.13414    967.66758    38682.965 
     160         0.16    672.73668    967.66758    37913.918 
     170         0.17    661.88181    967.66758    38512.538 
     180         0.18    631.78134    967.66758    39707.653 
     190         0.19     614.4282    967.66758    40624.576 
     200          0.2    627.88347    967.66758    40594.975 
     210         0.21    664.67076    967.66758    39835.563 
     220         0.22     700.7884    967.66758    39083.097 
     230         0.23    721.62008    967.66758    38866.867 
     240         0.24    728.85566    967.66758    39107.341 
     250         0.25    730.82988    967.66758    39520.494 
     260         0.26    738.43202    967.66758     39661.76 
     270         0.27    757.05114    967.66758    39349.859 
     280         0.28    779.47524    967.66758    38882.013 
     290         0.29    791.33323    967.66758     38709.73 
     300          0.3    783.74491    967.66758    39018.936 
     310         0.31    762.52742    967.66758    39642.996 
     320         0.32    744.31696    967.66758    39998.317 
     330         0.33     743.0172    967.66758    39589.702 
     340         0.34    758.23293    967.66758     38478.44 
     350         0.35    773.16518    967.66758    37267.084 
     360         0.36    770.01806    967.66758    36549.994 
     370         0.37    750.04518    967.66758     36382.34 
     380         0.38    729.53398    967.66758    36297.323 
     390         0.39    718.85684    967.66758     36068.34 
     400          0.4    712.79241    967.66758    35814.091 
     410         0.41     699.9874    967.66758     35869.25 
     420         0.42    676.26145    967.66758    36266.447 
     430         0.43    647.00453    967.66758    36833.995 
     440         0.44    622.02498    967.66758    37290.223 
     450         0.45     606.6454    967.66758    37536.633 
     460         0.46    594.95688    967.66758    37703.246 
     470         0.47    578.71078    967.66758    37993.947 
     480         0.48    562.77371    967.66758    38265.654 
     490         0.49    560.83123    967.66758    38206.181 
     500          0.5    574.86885    967.66758    37799.844 
     510         0.51    588.69863    967.66758     37539.47 
     520         0.52    584.32187    967.66758    37932.725 
     530         0.53    561.90359    967.66758    38922.375 
     540         0.54    543.87603    967.66758    39844.596 
     550         0.55    554.95785    967.66758    40005.407 
     560         0.56    595.39941    967.66758    39293.238 
     570         0.57    642.08189    967.66758    38351.921 
     580         0.58    675.52337    967.66758    37762.414 
     590         0.59    695.29841    967.66758    37580.712 
     600          0.6    710.84359    967.66758    37457.684 
     610         0.61    727.28313    967.66758    37191.505 
     620         0.62    741.54618    967.66758     36851.48 
     630         0.63    746.40874    967.66758     36710.53 
     640         0.64    736.00057    967.66758    37024.433 
     650         0.65    711.33099    967.66758    37709.573 
     660         0.66    687.60368    967.66758    38271.224 
     670         0.67    685.93171    967.66758    38222.514 
     680         0.68     706.4982    967.66758    37573.269 
     690         0.69    726.05438    967.66758    36977.781 
     700          0.7    722.67898    967.66758    37112.982 
     710         0.71    692.69942    967.66758    38132.046 
     720         0.72    653.40402    967.66758    39399.082 
     730         0.73    633.39294    967.66758    40000.342 
     740         0.74    650.64853    967.66758    39410.892 
     750         0.75     693.9005    967.66758    37958.685 
     760         0.76    730.19783    967.66758     36699.08 
     770         0.77    734.31925    967.66758    36446.561 
     780         0.78    708.69078    967.66758    37170.428 
     790         0.79    673.18914    967.66758    38249.244 
     800          0.8     651.4925    967.66758    38822.984 
     810         0.81    663.44698    967.66758    38243.622 
     820         0.82    708.29427    967.66758    36587.305 
     830         0.83    759.43602    967.66758    34769.673 
     840         0.84    784.96498    967.66758    33817.257 
     850         0.85    772.38583    967.66758    34182.575 
     860         0.86    731.80363    967.66758     35554.48 
     870         0.87    681.83016    967.66758    37259.448 
     880         0.88    637.23272    967.66758     38858.58 
     890         0.89    604.65328    967.66758    40073.556 
     900          0.9    584.95235    967.66758    40867.575 
     910         0.91     575.7055    967.66758    41312.941 
     920         0.92    573.15678    967.66758    41504.088 
     930         0.93     576.1968    967.66758     41491.38 
     940         0.94    584.22319    967.66758     41318.19 
     950         0.95    593.12327    967.66758    41110.257 
     960         0.96     602.1333    967.66758    40869.272 
     970         0.97    617.43283    967.66758     40506.06 
     980         0.98    639.96567    967.66758    40044.929 
     990         0.99    662.75839    967.66758    39657.449 
    1000            1     683.6897    967.66758    39354.503 
Loop time of 20.6508 on 1 procs for 900 steps with 64 atoms

Performance: 3.765 ns/day, 6.374 hours/ns, 43.582 timesteps/s
100.0% CPU use with 1 MPI tasks x no OpenMP threads

MPI task timing breakdown:
Section |  min time  |  avg time  |  max time  |%varavg| %total
---------------------------------------------------------------
Pair    | 20.641     | 20.641     | 20.641     |   0.0 | 99.95
Neigh   | 0.0031026  | 0.0031026  | 0.0031026  |   0.0 |  0.02
Comm    | 0.0033677  | 0.0033677  | 0.0033677  |   0.0 |  0.02
Output  | 0.00041862 | 0.00041862 | 0.00041862 |   0.0 |  0.00
Modify  | 0.0017     | 0.0017     | 0.0017     |   0.0 |  0.01
Other   |            | 0.0007437  |            |       |  0.00

Nlocal:        64.0000 ave          64 max          64 min
Histogram: 1 0 0 0 0 0 0 0 0 0
Nghost:        886.000 ave         886 max         886 min
Histogram: 1 0 0 0 0 0 0 0 0 0
Neighs:         0.00000 ave           0 max           0 min
Histogram: 1 0 0 0 0 0 0 0 0 0
FullNghs:      6066.00 ave        6066 max        6066 min
Histogram: 1 0 0 0 0 0 0 0 0 0

Total # of neighbors = 6066
Ave neighs/atom = 94.781250
Neighbor list builds = 14
Dangerous builds = 0
Setting up Verlet run ...
  Unit style    : metal
  Current step  : 1000
  Time step     : 0.001
Per MPI rank memory allocation (min/avg/max) = 3.089 | 3.089 | 3.089 Mbytes
Step Time Temp Volume Press 
    1000            1     683.6897    967.66758    39354.503 
    1100          1.1    761.01503    967.66758    43439.496 
    1200          1.2    729.98929    967.66758    40906.863 
    1300          1.3    633.96227    967.66758    40325.362 
    1400          1.4    734.48786    967.66758    37008.274 
    1500          1.5    705.06525    967.66758    33143.932 
    1600          1.6    550.88066    967.66758    34170.068 
    1700          1.7    656.49106    967.66758    34610.705 
    1800          1.8    768.75155    967.66758    36880.144 
    1900          1.9    700.52026    967.66758    43377.612 
    2000            2    901.35979    967.66758    36275.692 
    2100          2.1    634.63519    967.66758    41372.385 
    2200          2.2    714.31704    967.66758    33232.906 
    2300          2.3     622.4865    967.66758    37345.119 
    2400          2.4    619.83204    967.66758    39569.875 
    2500          2.5    806.40109    967.66758    40196.498 
    2600          2.6    735.92709    967.66758    43976.516 
    2700          2.7    765.84056    967.66758    40633.262 
    2800          2.8    710.42077    967.66758    39731.862 
    2900          2.9    678.36207    967.66758    37341.426 
    3000            3    637.51722    967.66758    34777.221 
    3100          3.1     620.6254    967.66758    35091.989 
    3200          3.2     755.8054    967.66758    40137.533 
    3300          3.3    756.78735    967.66758     42852.14 
    3400          3.4    670.02074    967.66758    39063.699 
    3500          3.5    608.30915    967.66758    39412.374 
    3600          3.6    728.86798    967.66758    37568.103 
    3700          3.7     699.2272    967.66758    36973.162 
    3800          3.8    552.25791    967.66758    40171.329 
    3900          3.9    641.89179    967.66758    31093.177 
    4000            4    601.85454    967.66758    30378.898 
    4100          4.1    576.87849    967.66758    35665.162 
    4200          4.2    700.09119    967.66758    37112.543 
    4300          4.3    686.35852    967.66758    41468.121 
    4400          4.4    842.07929    967.66758    38158.527 
    4500          4.5    607.13698    967.66758    45786.206 
    4600          4.6    643.06216    967.66758    36309.434 
    4700          4.7    602.74946    967.66758    33977.513 
    4800          4.8     619.8567    967.66758     35484.37 
    4900          4.9    731.74833    967.66758    33648.735 
    5000            5    694.31053    967.66758    38793.936 
    5100          5.1    752.41661    967.66758    38908.394 
    5200          5.2    735.75775    967.66758     40673.57 
    5300          5.3    669.57374    967.66758    42827.672 
    5400          5.4    646.84191    967.66758    38387.613 
    5500          5.5    699.69533    967.66758    31833.711 
    5600          5.6    571.87288    967.66758     34911.05 
    5700          5.7    693.66082    967.66758    40296.608 
    5800          5.8     716.7899    967.66758    41032.077 
    5900          5.9    673.23834    967.66758    42467.126 
    6000            6    759.90054    967.66758    37543.522 
    6100          6.1    712.33831    967.66758    36608.247 
    6200          6.2    606.20438    967.66758    35053.039 
    6300          6.3    543.58032    967.66758    36688.715 
    6400          6.4    646.11791    967.66758    41375.136 
    6500          6.5    695.71211    967.66758    42162.846 
    6600          6.6    672.04317    967.66758    43054.258 
    6700          6.7    680.02528    967.66758    38702.278 
    6800          6.8    647.18326    967.66758    33307.946 
    6900          6.9    685.85191    967.66758    32049.746 
    7000            7     618.1942    967.66758    40480.374 
    7100          7.1    685.50874    967.66758    43749.219 
    7200          7.2    778.84572    967.66758    41167.147 
    7300          7.3    771.76695    967.66758    36999.174 
    7400          7.4    530.60916    967.66758     41882.36 
    7500          7.5    772.21709    967.66758    36529.049 
    7600          7.6    773.01315    967.66758    35430.066 
    7700          7.7    497.38802    967.66758    40138.598 
    7800          7.8    646.63352    967.66758    34172.246 
    7900          7.9    670.41831    967.66758    42368.523 
    8000            8    774.03425    967.66758    43631.674 
    8100          8.1    699.46943    967.66758    40295.452 
    8200          8.2    693.38061    967.66758    36719.773 
    8300          8.3    658.29256    967.66758    38051.673 
    8400          8.4    682.22495    967.66758    35454.863 
    8500          8.5    627.34729    967.66758    37148.063 
    8600          8.6     765.9868    967.66758    34667.067 
    8700          8.7    713.13615    967.66758    38148.111 
    8800          8.8    801.62042    967.66758    41804.768 
    8900          8.9    684.06116    967.66758    44552.156 
    9000            9    678.29152    967.66758     37471.74 
    9100          9.1    635.65353    967.66758    33829.324 
    9200          9.2    674.22546    967.66758    33975.795 
    9300          9.3    791.12889    967.66758    33527.254 
    9400          9.4    646.02845    967.66758    43409.779 
    9500          9.5     738.6135    967.66758    42851.011 
    9600          9.6    691.41577    967.66758    45295.213 
    9700          9.7    700.76003    967.66758    36047.374 
    9800          9.8    646.66244    967.66758     33642.09 
    9900          9.9       600.14    967.66758    38039.037 
   10000           10    675.20512    967.66758    39457.567 
Loop time of 193.967 on 1 procs for 9000 steps with 64 atoms

Performance: 4.009 ns/day, 5.987 hours/ns, 46.400 timesteps/s
100.0% CPU use with 1 MPI tasks x no OpenMP threads

MPI task timing breakdown:
Section |  min time  |  avg time  |  max time  |%varavg| %total
---------------------------------------------------------------
Pair    | 193.88     | 193.88     | 193.88     |   0.0 | 99.95
Neigh   | 0.033153   | 0.033153   | 0.033153   |   0.0 |  0.02
Comm    | 0.031375   | 0.031375   | 0.031375   |   0.0 |  0.02
Output  | 0.0005306  | 0.0005306  | 0.0005306  |   0.0 |  0.00
Modify  | 0.015632   | 0.015632   | 0.015632   |   0.0 |  0.01
Other   |            | 0.006887   |            |       |  0.00

Nlocal:        64.0000 ave          64 max          64 min
Histogram: 1 0 0 0 0 0 0 0 0 0
Nghost:        886.000 ave         886 max         886 min
Histogram: 1 0 0 0 0 0 0 0 0 0
Neighs:         0.00000 ave           0 max           0 min
Histogram: 1 0 0 0 0 0 0 0 0 0
FullNghs:      6056.00 ave        6056 max        6056 min
Histogram: 1 0 0 0 0 0 0 0 0 0

Total # of neighbors = 6056
Ave neighs/atom = 94.625000
Neighbor list builds = 159
Dangerous builds = 0
System init for write_data ...
Total wall time: 0:03:37
