LAMMPS data file via write_data, version 29 Sep 2021, timestep = 10000

64 atoms
1 atom types

0 10.560000000000285 xlo xhi
0 9.145228263963919 ylo yhi
0 10.02 zlo zhi
0 0 0 xy xz yz

Masses

1 65.38

Atoms # atomic

1 1 1.5009198968964803 5.158613636094892 3.7161015416391185 0 0 0
2 1 1.4095750151616282 5.636813096060553 9.07341572694328 0 0 0
3 1 10.423533141950104 7.645325995073997 3.6989100345590584 -1 0 0
4 1 0.051717287412808746 7.658999915471684 8.45331206600634 0 0 0
5 1 6.586422878566954 0.47590935805005863 3.736593427185548 0 0 0
6 1 6.700234548742424 0.8117015127824363 8.973350830704156 0 0 0
7 1 5.158324357773617 3.0364369483897793 4.123172734733943 0 0 0
8 1 5.157383613904309 3.1776604296365774 8.66100754419924 0 0 0
9 1 1.2560756717328136 0.7532802031809622 3.8359475243692938 0 0 0
10 1 1.196427816866021 0.9318215461600352 8.580830291453076 0 0 0
11 1 10.487069838985782 3.344825495933697 3.620155308551438 -1 0 0
12 1 0.1326228296474714 3.2873837703160897 8.410021709403956 0 0 0
13 1 3.9459697897279895 0.6877281980525058 3.481526460163059 0 0 0
14 1 3.8961598439372414 0.8433978565947352 8.536102208243092 0 0 0
15 1 2.6028296733796705 2.994290709140354 4.039541064109274 0 0 0
16 1 2.6339153575749754 3.0214611375697666 8.734271766047197 0 0 0
17 1 6.504813071400717 5.301420236903244 3.656131910546263 0 0 0
18 1 6.676947557943093 5.418464194678177 8.626708499496191 0 0 0
19 1 5.218998817528993 7.641324510962321 3.6774054504013667 0 0 0
20 1 5.453156585913846 7.663990436966426 8.324149058511452 0 0 0
21 1 9.14231116096759 5.443606367971192 3.6912600089613674 0 0 0
22 1 9.536217961769804 5.391088317393953 9.328008481129942 0 0 0
23 1 7.674631043226748 7.523468266074023 4.316279635402405 0 0 0
24 1 7.8961481539800715 7.788399137307993 8.845417468137102 0 0 0
25 1 3.9323182069678246 5.439933888247056 3.6292517905093433 0 0 0
26 1 3.9085921196343705 5.596150864995103 8.938008858230138 0 0 0
27 1 2.635123880727422 7.611470223777838 3.8718919523648156 0 0 0
28 1 2.7019156050873727 8.067235283479539 8.43554257138692 0 0 0
29 1 9.318130393212346 0.7690175188707926 4.299536792293858 0 0 0
30 1 9.295812418343063 0.8314134357723469 9.070800906628822 0 0 0
31 1 7.604257345721843 2.9026373182222005 3.397803905403169 0 0 0
32 1 8.056974001793176 3.2070366966643293 8.710796672023948 0 0 0
33 1 5.468402839709216 1.4783382666798826 0.9303569616973977 0 0 0
34 1 5.409249590170643 1.6534503847532218 6.483491825248651 0 0 0
35 1 4.050975286016488 3.4900581143229465 1.1294334326816344 0 0 0
36 1 3.970787484901364 3.9483598075606015 6.420283859455279 0 0 0
37 1 2.7154198775664797 5.899002031891441 1.266287373639378 0 0 0
38 1 2.5895766901385238 6.0756882275012165 6.233401826508568 0 0 0
39 1 1.2859255515216004 8.152231935441622 0.693308704427443 0 0 0
40 1 1.3924911050732103 8.37603767778805 6.151545057643222 0 0 0
41 1 0.03779973932517268 1.3562708319603267 1.545863545903042 0 0 0
42 1 10.538134820571733 1.435572955871032 6.333543910530982 -1 0 0
43 1 2.6408077455719074 1.2315781894496265 1.4065589033316048 0 0 0
44 1 2.5391057262283416 1.653957315347782 6.15430501101498 0 0 0
45 1 1.2000321561809804 3.6244125511252383 1.2194703845065318 0 0 0
46 1 1.3615644292648488 3.952271375876729 6.27250304714002 0 0 0
47 1 0.02842502957782707 5.968518945215322 1.595080653070431 0 0 0
48 1 10.431817075901483 6.036224927739404 6.287875916614772 -1 0 0
49 1 9.17497255016219 3.46958793588167 1.364425839816702 0 0 0
50 1 9.210461593385876 3.5068178296416317 5.716939055011489 0 0 0
51 1 8.137917408074049 6.133968384621222 1.506758577546815 0 0 0
52 1 8.088356794552192 5.749762003830463 6.723609310574428 0 0 0
53 1 6.583335119597734 8.443952475434259 1.4860406700842415 0 0 0
54 1 6.5971753838438225 8.771243476293314 6.302234123853892 0 0 0
55 1 9.25026016057452 8.263349736790525 1.2235901407625367 0 0 0
56 1 9.214287660372998 8.1969954743277 6.285668584165331 0 0 0
57 1 7.826115532327064 1.4664415122691574 1.2260054781228689 0 0 0
58 1 7.782024322628802 1.517716743026989 6.697845316004583 0 0 0
59 1 6.521471256597512 4.052254042946177 1.3298892049495037 0 0 0
60 1 6.437842790214568 3.90937039190564 6.005707366132267 0 0 0
61 1 5.505297607050047 5.976425682761956 1.227165532667227 0 0 0
62 1 5.401125877570963 6.229713538970425 6.13088291370365 0 0 0
63 1 3.9875782679744383 8.192060686540154 0.9682214579497717 0 0 0
64 1 3.845732640885664 8.373364486284375 5.8284518155024605 0 0 0

Velocities

1 4.607486685365123 -2.553959423201932 3.4791776863117745
2 -2.329499402600342 3.1974028265397485 -6.828328669526277
3 -0.9116303897197119 -4.256702630697214 0.012355163290228066
4 -3.7553328795501004 3.2703421663477275 -2.014167776963633
5 -2.2537216121427535 2.2719517744424382 -0.7217157206935975
6 0.5920109489611287 2.980615060350102 -1.4592532713070765
7 1.3845486362657995 -1.2424515499961095 -0.041500014796455265
8 2.5940591419597574 3.133446683324556 3.595416481138198
9 0.5060538569526891 -3.148009564291485 2.8810047864722472
10 -0.4554224608483785 5.063673705041381 0.23499915172549515
11 0.37937496694264516 -0.7682723132596012 -0.2734192541911153
12 -0.40506207968501196 1.4889666957076566 -1.3094853405557372
13 -4.124449156577714 -0.07992994655657878 0.20968647264403784
14 2.538153869476686 -1.817906463233319 -0.8441278794870799
15 0.5132667213398334 -2.1600889729686377 -0.8988671282114187
16 -5.072142130755928 -3.5268476017951533 -1.2553647149012013
17 0.6296083919294581 -3.016061154504399 -1.7089840464711592
18 3.970929520756424 1.0184111591802378 0.047794370847339784
19 4.282827925446606 -3.9105676806376146 -8.377457872055878
20 7.215692725623315 4.96297838117694 2.224187562425147
21 3.730801074760049 -2.494217341092622 2.795976472731525
22 -1.6923514339794303 -4.414619721634824 -3.31853162388809
23 -6.148952663337241 0.349806722322849 0.9698504630127005
24 0.5339846005755225 3.1067620302442585 -0.7187268156165791
25 7.076461795067302 -2.0376831821165062 3.9566074165197276
26 -6.382384414984293 -1.6068069965442244 -1.188596473993958
27 0.015427742088525365 -1.5159422827529971 -1.6358972613061855
28 0.654961248733243 3.5926801705945057 2.449806626023381
29 -5.290159683615974 -2.2069822917015856 -2.0153894569956816
30 0.3829725485979652 -5.604798898259491 -0.5241260615898415
31 0.7798733897386949 -0.9123366923688098 -0.8778695392982638
32 1.078746957455771 -2.0606119038317345 1.1543252807768902
33 0.333415192228814 6.487934417294303 -3.9284684298502888
34 -2.555793436164617 -3.137381090409896 0.586552732938758
35 0.49496744396817943 -3.0600999219414096 -0.9410490726303873
36 1.581292042279579 -1.816635713104269 3.4669013496603305
37 0.34941451638058335 0.10830055759075315 -3.869270375424914
38 -5.13976286823561 4.169097290580443 3.8755277609708356
39 1.2333365825791656 2.7160149850545747 -2.0853830439804137
40 1.4585336465775576 2.2862604485817015 -3.50234519131299
41 3.5936898946475058 3.410381695647804 3.944103839576739
42 1.534464221711759 -0.9748233709590429 -2.0245234285774787
43 -0.14272276639155387 2.089922827686448 5.328628452904481
44 2.4446928693266 3.2398087758403675 2.594515835221634
45 -0.15267103576528732 2.4934399840596266 -1.9240610015949067
46 -0.9422597825194338 -1.4567963014004692 6.886351183384304
47 0.5781921057901135 2.841933576607348 4.003761463633569
48 2.6469554509624227 -2.482066057386789 0.23182913695027083
49 -0.7339142272818209 0.12080482328931495 -0.6082589345926777
50 0.05367814109923191 3.505574161254915 -1.3163170604946859
51 -1.3985634656954677 3.7610895292786397 4.797533925177617
52 -0.16428088519826733 -1.7953022953568427 2.087659652549859
53 -0.3779213744340012 -2.913077174830946 -3.008646601283655
54 3.3071649902070623 1.7391623379961587 1.036766125411695
55 -3.8418366437995455 -1.9195062943589931 -1.0113496324566715
56 -0.2998576499456552 -1.5738538670212103 5.912668621668029
57 2.9282576062901557 0.4553966607120603 1.9766072992092245
58 -1.664383741420603 -2.0920440685652357 -1.9171985812210999
59 2.291781699862212 -1.8811986469888422 0.2655038887461368
60 1.059458566849103 1.1854870977079772 -4.544981610241962
61 -8.264638589117478 1.4205311873911752 0.7378992679002628
62 -2.2914138423998076 0.8336282776444653 1.5639092399333472
63 -4.1994621637199625 -3.5189004478190307 -4.162155532930277
64 1.6340530610895563 0.6546758520974315 -2.4520902913141285
