ITEM: TIMESTEP
10000
ITEM: NUMBER OF ATOMS
64
ITEM: BOX BOUNDS xy xz yz pp pp pp
0.0000000000000000e+00 1.0560000000000285e+01 0.0000000000000000e+00
0.0000000000000000e+00 9.1452282639639186e+00 0.0000000000000000e+00
0.0000000000000000e+00 1.0020000000000000e+01 0.0000000000000000e+00
ITEM: ATOMS id type x y z
1 1 1.50092 5.15861 3.7161
2 1 1.40958 5.63681 9.07342
3 1 10.4235 7.64533 3.69891
4 1 0.0517173 7.659 8.45331
5 1 6.58642 0.475909 3.73659
6 1 6.70023 0.811702 8.97335
7 1 5.15832 3.03644 4.12317
8 1 5.15738 3.17766 8.66101
9 1 1.25608 0.75328 3.83595
10 1 1.19643 0.931822 8.58083
11 1 10.4871 3.34483 3.62016
12 1 0.132623 3.28738 8.41002
13 1 3.94597 0.687728 3.48153
14 1 3.89616 0.843398 8.5361
15 1 2.60283 2.99429 4.03954
16 1 2.63392 3.02146 8.73427
17 1 6.50481 5.30142 3.65613
18 1 6.67695 5.41846 8.62671
19 1 5.219 7.64132 3.67741
20 1 5.45316 7.66399 8.32415
21 1 9.14231 5.44361 3.69126
22 1 9.53622 5.39109 9.32801
23 1 7.67463 7.52347 4.31628
24 1 7.89615 7.7884 8.84542
25 1 3.93232 5.43993 3.62925
26 1 3.90859 5.59615 8.93801
27 1 2.63512 7.61147 3.87189
28 1 2.70192 8.06724 8.43554
29 1 9.31813 0.769018 4.29954
30 1 9.29581 0.831413 9.0708
31 1 7.60426 2.90264 3.3978
32 1 8.05697 3.20704 8.7108
33 1 5.4684 1.47834 0.930357
34 1 5.40925 1.65345 6.48349
35 1 4.05098 3.49006 1.12943
36 1 3.97079 3.94836 6.42028
37 1 2.71542 5.899 1.26629
38 1 2.58958 6.07569 6.2334
39 1 1.28593 8.15223 0.693309
40 1 1.39249 8.37604 6.15155
41 1 10.5978 1.35627 1.54586
42 1 10.5381 1.43557 6.33354
43 1 2.64081 1.23158 1.40656
44 1 2.53911 1.65396 6.15431
45 1 1.20003 3.62441 1.21947
46 1 1.36156 3.95227 6.2725
47 1 0.028425 5.96852 1.59508
48 1 10.4318 6.03622 6.28788
49 1 9.17497 3.46959 1.36443
50 1 9.21046 3.50682 5.71694
51 1 8.13792 6.13397 1.50676
52 1 8.08836 5.74976 6.72361
53 1 6.58334 8.44395 1.48604
54 1 6.59718 8.77124 6.30223
55 1 9.25026 8.26335 1.22359
56 1 9.21429 8.197 6.28567
57 1 7.82612 1.46644 1.22601
58 1 7.78202 1.51772 6.69785
59 1 6.52147 4.05225 1.32989
60 1 6.43784 3.90937 6.00571
61 1 5.5053 5.97643 1.22717
62 1 5.40113 6.22971 6.13088
63 1 3.98758 8.19206 0.968221
64 1 3.84573 8.37336 5.82845
