LAMMPS data file via write_data, version 29 Sep 2021, timestep = 10000

64 atoms
1 atom types

0 10.479999999999203 xlo xhi
0 9.075946231660229 ylo yhi
0 10.02 zlo zhi
0 0 0 xy xz yz

Masses

1 65.38

Atoms # atomic

1 1 1.3232074002349457 5.3331310972826635 3.595069700274943 0 0 0
2 1 1.0718080516728625 5.380383849153042 8.802524156964479 0 0 0
3 1 0.10895926896610184 7.511080303870307 3.86820533076778 0 0 0
4 1 10.33326990971843 7.440282478488536 8.618913355401357 -1 0 0
5 1 6.4523644292392195 1.0307157953664774 3.195572606760301 0 0 0
6 1 6.540474702958944 0.7911042254639653 8.954793774054991 0 0 0
7 1 5.189237576303122 2.943985771381324 4.133233501511451 0 0 0
8 1 5.302959106503763 2.8779650914358736 8.858202637545576 0 0 0
9 1 1.4536887501022882 0.7350334166174295 3.880331347018828 0 0 0
10 1 0.8595239965868426 0.6276534120618518 9.019373956042424 0 0 0
11 1 10.316517653700828 2.878123161535079 3.957337180862275 -1 0 0
12 1 0.1961201635701334 2.8539877320983287 8.521396444095505 0 0 0
13 1 4.058252582558543 0.6993220169475096 3.8818552292077984 0 0 0
14 1 3.8554572450802302 0.8545210185227563 8.608283705564647 0 0 0
15 1 2.6412321127366925 2.931911781127509 3.804230480870386 0 0 0
16 1 2.6741936251827796 2.9893523556627244 9.077386156169823 0 0 0
17 1 6.602424338229762 5.321701382242053 3.638105066662584 0 0 0
18 1 6.335409134737331 5.407197530947578 8.38114993178357 0 0 0
19 1 5.589924235417202 7.6348392732953565 3.820044622085486 0 0 0
20 1 5.009439362459167 7.5127064943530835 8.64130889661534 0 0 0
21 1 9.354125856668523 5.252954214654818 3.822682951688934 0 0 0
22 1 8.8150431039863 5.167705927891232 8.807830141652884 0 0 0
23 1 7.994835687625417 7.558524324869118 3.7545044627907824 0 0 0
24 1 7.83156379856082 7.57866251979546 8.29066345810042 0 0 0
25 1 3.767538186208599 5.14504396228977 3.857433996568212 0 0 0
26 1 3.869589408700159 5.1720341081100285 8.688538003840618 0 0 0
27 1 2.7610763450236817 7.753735182416417 3.755201291351278 0 0 0
28 1 2.464674907232126 7.615333051373813 8.966333361238194 0 0 0
29 1 9.024720703216769 0.6593595612307361 3.873742303438045 0 0 0
30 1 8.995108104635012 0.8833900963559532 8.948162161153244 0 0 0
31 1 7.827895163690962 3.227932975836814 3.6797556170971797 0 0 0
32 1 7.729949031883462 2.998886525420108 8.571239647391192 0 0 0
33 1 5.102881708594774 1.2730772604331442 1.1285072471135482 0 0 0
34 1 5.486931902040607 1.5192295640884845 6.525778507303797 0 0 0
35 1 3.869672011053226 3.795137566041685 1.4174997200514332 0 0 0
36 1 3.902466693090623 3.9226602155879484 6.399407102888686 0 0 0
37 1 2.6154719501872297 6.075254210792674 1.0749444603658154 0 0 0
38 1 2.451262899401729 6.246615096244074 6.139428105678857 0 0 0
39 1 1.4626418520190774 8.43364252867089 1.2030945964369415 0 0 0
40 1 1.3910350072047455 8.508211029354776 6.451941555505205 0 0 0
41 1 0.09518402872210369 1.5239402376438276 1.68187575681305 0 0 0
42 1 10.435220408688489 1.2795182296782845 6.12987323722635 -1 0 0
43 1 2.7204601363971945 1.6486256512997182 1.6200855879385463 0 0 0
44 1 2.709670450605551 1.6724513376655108 6.145281372749934 0 0 0
45 1 1.4270396792305713 3.797566606706864 1.2986468636085442 0 0 0
46 1 1.4462032533829547 3.737620790758818 6.166748465976325 0 0 0
47 1 0.07016692000806046 6.189148423264706 1.1602854168561763 0 0 0
48 1 0.02132686435179037 5.837948173548386 6.441678009692155 0 0 0
49 1 9.269214864013904 3.9522788128475255 1.4611400624472934 0 0 0
50 1 9.309245395887276 3.7503607880042553 6.241760356693741 0 0 0
51 1 7.959087673069216 5.996039109795166 1.1490196166221534 0 0 0
52 1 7.753656263187688 5.973887985053622 6.070239480816721 0 0 0
53 1 6.726333379485582 8.133777177481536 0.9294735969436705 0 0 0
54 1 6.483067603005938 8.208658865402198 6.30786768849664 0 0 0
55 1 9.195504982549076 8.349741213679884 1.2330590583804186 0 0 0
56 1 9.144551462149527 8.25625401905684 6.182824678957884 0 0 0
57 1 7.813599256818082 1.6819573712505476 1.2242774505995868 0 0 0
58 1 8.054739488586439 1.4775979871217253 5.926383764531054 0 0 0
59 1 6.553399276018046 3.8984329923289396 1.0080563371042808 0 0 0
60 1 6.481631992199428 3.838427079011893 6.395095295969686 0 0 0
61 1 5.403384389700442 6.02584332408157 1.2830935329561954 0 0 0
62 1 5.034264429557546 5.958584702577934 6.039634017534374 0 0 0
63 1 3.9965769508449136 8.247950702240741 1.3703974720516254 0 0 0
64 1 4.1435228845337875 8.451279723316205 6.55919610711406 0 0 0

Velocities

1 -0.42757741022193674 -1.0866193504878605 2.5172708691551455
2 -1.0951597340204897 -4.094024445131382 0.6696791766092348
3 -1.7659961500539811 -1.8654375151063687 -1.2858091749614586
4 -5.079188757761184 3.947109797332088 -3.902039737000847
5 -1.3214285319393888 -1.3745635101071085 -4.6300698287309
6 -5.699061799095364 -1.5350032594769711 -0.27827205397212984
7 -0.28214524802958746 1.4007645820871695 2.052469414274054
8 5.239654670750888 5.629431905263403 4.302534840527104
9 -1.3780508748164866 -1.6974561070170984 -1.4906773376007083
10 -2.235631891560556 0.18425202956265196 -2.0163058846442534
11 2.4381335787939427 0.4768029062239398 -3.2998274685892945
12 4.544199647008129 -1.6654720328027217 0.22437489090792861
13 4.025456357470183 -1.3390383418949268 -0.4935532595445156
14 -1.8830302445097156 6.090930155043733 0.4842604378942358
15 -2.5620102526282413 0.17335422273404408 -4.636761486360261
16 1.390974825117226 -0.9001438375834493 2.443929131246013
17 -2.845276616210395 -1.904012873092857 0.11649185825794009
18 -0.07753971022582894 -2.646799116576994 -2.0450569520995683
19 0.8881399538569644 -1.129667262286169 -1.4908715517823847
20 -5.507378600910378 2.1097663437443854 -2.3474254088921
21 0.68462259891791 0.9199760897903718 -4.005401344609601
22 2.2637733778367704 -2.079603239075567 -2.1540110150657927
23 -1.1528063915409814 0.9929731792334553 2.7898716787600812
24 2.1308396857810354 4.465811988591851 -0.39681167857823285
25 -3.2914617641623054 -0.019230072435373266 -1.0927644082461907
26 -4.530051587319345 -5.518119494803423 -0.9052862536817768
27 -3.560239288590217 2.2886438893545256 -2.0968382904940923
28 0.39453551832268907 -5.756881869781763 1.5751573113779578
29 -2.540323248703679 -4.545450319815377 -5.495904705776795
30 1.7423165756866672 3.890274303245697 3.3335324878912393
31 -0.7391613381996552 -2.248008990570235 -7.4321303900936915
32 0.6817838851712125 1.1093754011782295 0.7064989698991254
33 1.7866169223801407 0.7035304664111516 0.32001422720045036
34 1.5261848240881888 3.7169391481490783 0.2641061913184395
35 -0.933112034903953 -2.5277990628533717 3.7525621024603963
36 1.0896421759447852 -3.376280415345735 -4.94537667957767
37 -0.6778309101541302 1.4921242901626954 7.537370540982267
38 -5.516795070971065 -2.315116008857577 4.14962321535676
39 -1.4933202738057718 -3.6790974568585995 -2.0556193901196176
40 1.213034336401417 3.729755882492189 2.526533230542788
41 -0.0890997862662857 -3.4576036017906433 0.5987522293941882
42 -3.3450318790016977 -6.795027401837639 -0.14996165189412286
43 -0.6085539615728894 -0.8422362984695158 1.9084510954824778
44 -0.4907217539307596 -2.1517681943246894 3.857374001850502
45 1.3779436175449065 3.329106003676317 1.0698374447511405
46 1.1166138250864035 2.2599649144956424 -0.5857874121589391
47 3.5901173821713224 4.567662261583992 -5.882162570512614
48 5.4541912448502465 1.4982766712712734 1.1348447788432134
49 2.2956637552994636 0.9260495728804966 2.943028329864628
50 -0.8212078145988014 2.991589341473346 -0.29990457868569587
51 2.382973019624083 6.6717294085108065 1.2726995422589418
52 -3.8922421121390673 1.7420779115188811 -0.9677536359900739
53 -3.4344909164672806 0.6659433459891687 -1.1414057509290336
54 -0.4411924452790652 -2.8284352690179166 -0.7182270937020567
55 1.8416646537576076 -3.006252687208897 -0.04873110108567946
56 4.8648530378794215 3.105213601498916 4.514018040976311
57 7.261360785737039 -3.860110097617445 -2.399630974617794
58 1.5170947671368606 -1.1907313246169384 0.6074160464758315
59 0.3602780243340635 -0.13000302092469657 -2.538750498156263
60 -1.796297120932164 -3.6959279796750732 3.431153197133146
61 1.441484851308282 6.579209138731616 6.341615277149173
62 1.9174387606258945 2.056229254984281 -2.3515575148118293
63 2.5686256001984997 4.170853721757502 3.688253997632685
64 1.4832032614401978 -2.623801271528429 4.4469625264923565
