LAMMPS data file via write_data, version 29 Sep 2021, timestep = 10000

64 atoms
1 atom types

0 10.519999999999747 xlo xhi
0 9.110587247812074 ylo yhi
0 10.179999999999998 zlo zhi
0 0 0 xy xz yz

Masses

1 65.38

Atoms # atomic

1 1 1.3811998273787907 5.39780670299587 3.777388110511211 0 0 0
2 1 1.2920656184463721 5.311166034522477 8.465311666866633 0 0 0
3 1 10.467138716034416 7.5219019349917025 3.6656993437355747 -1 0 0
4 1 10.254489095503839 7.641022469562729 9.022382122535772 -1 0 0
5 1 6.660629912892804 1.0319411267091747 4.110257494382519 0 0 0
6 1 6.3570821855159725 0.5917128477782482 8.984307901137615 0 0 0
7 1 5.059493047340662 3.198564446469466 3.787160473993989 0 0 0
8 1 5.311018547119323 2.9420785476726814 8.849437889768614 0 0 0
9 1 1.2231978127605472 0.542104008543272 3.8091880068977213 0 0 0
10 1 1.2236893091928855 0.9459072117955198 8.83986943630185 0 0 0
11 1 10.441303024247123 3.339619354548147 4.0852068850183425 -1 0 0
12 1 0.011969373762650748 3.0101041109608646 8.532363411662 0 0 0
13 1 4.202090480819296 0.684660029462474 4.267560765837036 0 0 0
14 1 3.633327301428438 0.838617051696989 9.159610661717558 0 0 0
15 1 2.614046281303388 2.8705026492293153 3.711738612462614 0 0 0
16 1 2.543295566285268 3.1254205502655923 9.456176697176744 0 0 0
17 1 6.491633929922538 5.0756160421845715 3.5702805745514588 0 0 0
18 1 6.669844795681814 5.398519379187604 8.717029338955458 0 0 0
19 1 5.422469299871062 7.766254612961085 3.6800364169303887 0 0 0
20 1 5.189400666703875 7.394168480571048 9.011688301574383 0 0 0
21 1 9.17982923698691 5.408374727669542 4.120313033405909 0 0 0
22 1 9.406933998340326 5.238126457417491 9.268647524403779 0 0 0
23 1 7.855758347971577 7.612967799024106 3.9648343087310547 0 0 0
24 1 7.6452588159274555 7.479586463511021 9.361177149650112 0 0 0
25 1 3.9522010126351046 5.440322529470118 3.6455864547580705 0 0 0
26 1 3.9660382920292325 5.13558461657149 9.201654851141596 0 0 0
27 1 2.97258400726058 7.603930991311235 3.3806915758635143 0 0 0
28 1 2.1952227344469306 7.5715594148386085 9.016297444731093 0 0 0
29 1 9.139428874422622 0.795206528322556 3.4639082359473203 0 0 0
30 1 8.892217659075513 0.7595289420819421 8.851070564174966 0 0 0
31 1 7.815913829140847 2.9157936064106376 3.2669696635266297 0 0 0
32 1 7.965461437392969 3.1405171772932827 8.862620742884463 0 0 0
33 1 5.178103396286434 1.5074463921113153 1.143775796589967 0 0 0
34 1 5.233987703916812 1.6502387637514238 6.2969154672030525 0 0 0
35 1 4.171508875531214 4.001604883696013 1.2762801473226881 0 0 0
36 1 4.305190227832742 3.988109531059661 6.597405591740615 0 0 0
37 1 2.5490982351659413 6.012789644961895 1.299950761681136 0 0 0
38 1 2.8301993974096824 6.0576494279345665 6.525433991819958 0 0 0
39 1 1.2962367910001873 8.303452468514914 1.3245384557856748 0 0 0
40 1 1.3245769671925396 8.372054359398684 6.449947436743349 0 0 0
41 1 10.413304690090241 1.3280154197707492 1.176581378282288 -1 0 0
42 1 10.43774684670937 1.5075253348953686 6.19128170472308 -1 0 0
43 1 2.8513607756578287 1.5721990770276097 1.7449907695053621 0 0 0
44 1 2.5406931068647376 1.387995596216797 6.0974419471775905 0 0 0
45 1 1.33572702415836 3.73007976474363 1.54245860780686 0 0 0
46 1 1.666165255116089 3.758803109866597 6.337050532916432 0 0 0
47 1 10.486037103354633 5.8424527050321045 1.6428295015048093 -1 0 0
48 1 0.3325531113540358 6.170520636950611 6.226089048134962 0 0 0
49 1 9.411928775903505 3.667369599597278 1.0844498340312652 0 0 0
50 1 9.321649591138993 3.7501429101343917 6.393000639722721 0 0 0
51 1 7.7824116412729625 5.887152652893445 1.4219561588995775 0 0 0
52 1 7.827295221375927 6.403608649990057 6.373344045921049 0 0 0
53 1 6.560457719048256 8.20272162951855 1.1102254738175634 0 0 0
54 1 6.466894544753664 8.534752005582401 6.458605416101933 0 0 0
55 1 9.077247218835218 8.335456319416982 1.2081992012360443 0 0 0
56 1 9.356292755891536 8.230552188544696 6.456371791851288 0 0 0
57 1 7.843407274991891 1.493234102362132 1.0371870409213548 0 0 0
58 1 7.893615034416922 1.4529944371859829 6.631257047418539 0 0 0
59 1 6.648709890126195 3.578283413184011 0.9649592959079129 0 0 0
60 1 6.74943915217531 3.790093294764774 6.113964886507991 0 0 0
61 1 5.2836364130962234 6.078382488721318 1.0485337067337117 0 0 0
62 1 5.266047084408232 6.3137644357083555 5.710631589347753 0 0 0
63 1 3.8374525526391032 8.241240424782145 1.1363673451295837 0 0 0
64 1 3.964792584433926 8.658919415637655 6.831509726279748 0 0 0

Velocities

1 -4.018984035110868 -1.5918217503328713 -1.5881076556069293
2 -5.23263016541566 -0.5212057081489514 0.08398747536407035
3 8.151759936555273 -7.156023886571234 -1.9676182453440072
4 -2.2927635516359675 2.9128709385191334 1.258608007508343
5 1.076561565542506 0.0390349783754039 0.5736018404721007
6 1.1887789833799167 3.9918708389523347 -3.1179029461913395
7 -2.6796528436178826 -0.5198539733508438 2.934146510865585
8 -2.081127822247245 -2.5862057182336895 -0.459860721711614
9 -1.50227485557686 1.0813780858151991 5.943450541798113
10 0.6631738087394866 0.7560431452141632 -0.8033607047019402
11 1.5576102495428825 -3.3169349584922827 -1.9752416408965383
12 3.7961558675755844 -1.9401092989873419 -1.1307968642108317
13 -5.601756442038427 0.8003436240687317 -0.9708179197452482
14 -0.18540435348561687 2.9855865685516414 -6.557624320658821
15 1.8009357793834542 3.9800610273515558 0.37542568522063696
16 -2.288737105486526 -0.4111832427241946 -1.1221797370364799
17 -0.37418710067059524 0.6304281362711049 -0.34472782105181277
18 2.837237781430466 0.7155613176023528 1.5826683215967152
19 4.361328889827967 -1.225586897808333 1.7802224690186959
20 -6.2934182109744325 -2.0201943959150683 -1.5263318078013384
21 4.473335580368156 -5.470931344866171 -0.3900239247836546
22 -0.7963861996522708 4.3146311966582935 -2.4825412613481213
23 1.4950987110414602 1.018735901827252 1.6202559319618675
24 1.5189169977763657 -0.8433495366431857 -3.1994370166178783
25 0.4352865494856217 -3.300464838378363 -0.9293057340306807
26 -4.814939957249782 -1.2825978810967869 0.9105731651347956
27 1.239604806672241 0.11606193402142594 2.1886966195291206
28 2.3222066038220923 -1.6925986994672035 2.9229693437110056
29 2.6250880162975685 -0.30280311077167554 -5.957417211752789
30 -1.5899762710872123 0.1396035877949832 1.4059566803212602
31 -0.07445687702417096 4.87958382430526 0.974620407133846
32 -0.7029261973535683 1.3662336566152973 -1.463760871853281
33 3.1967691295965186 1.3593927951190912 2.374422932638467
34 2.573293438131282 -6.962580038060009 -3.769140779235879
35 -1.3623479046815032 -6.270992975870394 5.911232292431868
36 -0.5875526400833728 0.6414778922902135 2.225360740277957
37 -0.9694262736164129 -1.6249734125875646 -0.24640193242479666
38 -2.974739410365271 -2.438381957941527 -2.3611243657979153
39 -2.9994156936080527 -1.2064615312328943 -1.076635555529466
40 -0.01637441111469766 -2.3257687984172435 -3.6267707800173667
41 -1.0605100933207943 0.5730462420241439 2.376452983283806
42 1.8849430321978635 4.226554069302311 3.0736454945792873
43 -4.114547091085929 1.8862025444880588 -2.1460426019709384
44 -1.7481097383699515 -3.7426957888405625 3.863670289494236
45 2.5916868115038585 1.1019199247446185 4.86609900572831
46 -3.0936296900347178 0.8114493935263446 3.1257634549044813
47 -4.432135703918439 -0.651645137538586 -0.13890601761781407
48 -2.9539624196038745 0.29771106166622807 6.565796060268619
49 1.5209616049495813 0.6869796233928406 -1.3467496750782402
50 4.419825534105415 4.8631881804427755 -0.7348056215680224
51 1.1875375128781624 -2.31381759386427 -4.814121039967635
52 1.0102962333771397 5.70412041356246 0.878814238067652
53 -0.07394001993163828 -0.3724092176782223 2.561086467088021
54 -0.8010099355142916 3.880563655881853 -1.5716806021002863
55 -0.6699868807836475 2.3459038193109047 -0.8201658535205717
56 0.030224864818990275 1.5901393642158974 0.5256586956495972
57 1.964913783041924 -3.6536861687442594 2.813048418210817
58 -1.013405119633625 1.4452461899784703 -4.004499470212614
59 1.0767886283639714 -0.65982205220671 0.6866814224369687
60 -0.35480821736728274 -3.2654992787873733 -0.009519897764352483
61 0.15360760986036773 3.30915473546529 0.07923888610341306
62 3.8454459079536694 2.0756642593544234 -0.1612141310969478
63 2.512906513432851 -0.2073690166500617 -3.485249714788051
64 2.2432425000077116 3.351225283497768 -0.18206993676522779
