ITEM: TIMESTEP
10000
ITEM: NUMBER OF ATOMS
64
ITEM: BOX BOUNDS xy xz yz pp pp pp
0.0000000000000000e+00 1.0519999999999747e+01 0.0000000000000000e+00
0.0000000000000000e+00 9.1105872478120737e+00 0.0000000000000000e+00
0.0000000000000000e+00 1.0179999999999998e+01 0.0000000000000000e+00
ITEM: ATOMS id type x y z
1 1 1.3812 5.39781 3.77739
2 1 1.29207 5.31117 8.46531
3 1 10.4671 7.5219 3.6657
4 1 10.2545 7.64102 9.02238
5 1 6.66063 1.03194 4.11026
6 1 6.35708 0.591713 8.98431
7 1 5.05949 3.19856 3.78716
8 1 5.31102 2.94208 8.84944
9 1 1.2232 0.542104 3.80919
10 1 1.22369 0.945907 8.83987
11 1 10.4413 3.33962 4.08521
12 1 10.532 3.0101 8.53236
13 1 4.20209 0.68466 4.26756
14 1 3.63333 0.838617 9.15961
15 1 2.61405 2.8705 3.71174
16 1 2.5433 3.12542 9.45618
17 1 6.49163 5.07562 3.57028
18 1 6.66984 5.39852 8.71703
19 1 5.42247 7.76625 3.68004
20 1 5.1894 7.39417 9.01169
21 1 9.17983 5.40837 4.12031
22 1 9.40693 5.23813 9.26865
23 1 7.85576 7.61297 3.96483
24 1 7.64526 7.47959 9.36118
25 1 3.9522 5.44032 3.64559
26 1 3.96604 5.13558 9.20165
27 1 2.97258 7.60393 3.38069
28 1 2.19522 7.57156 9.0163
29 1 9.13943 0.795207 3.46391
30 1 8.89222 0.759529 8.85107
31 1 7.81591 2.91579 3.26697
32 1 7.96546 3.14052 8.86262
33 1 5.1781 1.50745 1.14378
34 1 5.23399 1.65024 6.29692
35 1 4.17151 4.0016 1.27628
36 1 4.30519 3.98811 6.59741
37 1 2.5491 6.01279 1.29995
38 1 2.8302 6.05765 6.52543
39 1 1.29624 8.30345 1.32454
40 1 1.32458 8.37205 6.44995
41 1 10.4133 1.32802 1.17658
42 1 10.4377 1.50753 6.19128
43 1 2.85136 1.5722 1.74499
44 1 2.54069 1.388 6.09744
45 1 1.33573 3.73008 1.54246
46 1 1.66617 3.7588 6.33705
47 1 -0.0339629 5.84245 1.64283
48 1 0.332553 6.17052 6.22609
49 1 9.41193 3.66737 1.08445
50 1 9.32165 3.75014 6.393
51 1 7.78241 5.88715 1.42196
52 1 7.8273 6.40361 6.37334
53 1 6.56046 8.20272 1.11023
54 1 6.46689 8.53475 6.45861
55 1 9.07725 8.33546 1.2082
56 1 9.35629 8.23055 6.45637
57 1 7.84341 1.49323 1.03719
58 1 7.89362 1.45299 6.63126
59 1 6.64871 3.57828 0.964959
60 1 6.74944 3.79009 6.11396
61 1 5.28364 6.07838 1.04853
62 1 5.26605 6.31376 5.71063
63 1 3.83745 8.24124 1.13637
64 1 3.96479 8.65892 6.83151
