 # Something
 256 atoms
 1 atom types
 0   20.559999999999999      xlo xhi 
 0   20.559999999999999      ylo yhi 
 0   20.559999999999999      zlo zhi 
   0.0000000000000000        0.0000000000000000        0.0000000000000000      xy xz yz
 Atoms
 
           1           1   0.0000000000000000        0.0000000000000000        0.0000000000000000     
           2           1   0.0000000000000000        0.0000000000000000        5.1399999999999997     
           3           1   0.0000000000000000        0.0000000000000000        10.279999999999999     
           4           1   0.0000000000000000        0.0000000000000000        15.419999999999998     
           5           1   0.0000000000000000        5.1399999999999997        0.0000000000000000     
           6           1   0.0000000000000000        5.1399999999999997        5.1399999999999997     
           7           1   0.0000000000000000        5.1399999999999997        10.279999999999999     
           8           1   0.0000000000000000        5.1399999999999997        15.419999999999998     
           9           1   0.0000000000000000        10.279999999999999        0.0000000000000000     
          10           1   0.0000000000000000        10.279999999999999        5.1399999999999997     
          11           1   0.0000000000000000        10.279999999999999        10.279999999999999     
          12           1   0.0000000000000000        10.279999999999999        15.419999999999998     
          13           1   0.0000000000000000        15.419999999999998        0.0000000000000000     
          14           1   0.0000000000000000        15.419999999999998        5.1399999999999997     
          15           1   0.0000000000000000        15.419999999999998        10.279999999999999     
          16           1   0.0000000000000000        15.419999999999998        15.419999999999998     
          17           1   5.1399999999999997        0.0000000000000000        0.0000000000000000     
          18           1   5.1399999999999997        0.0000000000000000        5.1399999999999997     
          19           1   5.1399999999999997        0.0000000000000000        10.279999999999999     
          20           1   5.1399999999999997        0.0000000000000000        15.419999999999998     
          21           1   5.1399999999999997        5.1399999999999997        0.0000000000000000     
          22           1   5.1399999999999997        5.1399999999999997        5.1399999999999997     
          23           1   5.1399999999999997        5.1399999999999997        10.279999999999999     
          24           1   5.1399999999999997        5.1399999999999997        15.419999999999998     
          25           1   5.1399999999999997        10.279999999999999        0.0000000000000000     
          26           1   5.1399999999999997        10.279999999999999        5.1399999999999997     
          27           1   5.1399999999999997        10.279999999999999        10.279999999999999     
          28           1   5.1399999999999997        10.279999999999999        15.419999999999998     
          29           1   5.1399999999999997        15.419999999999998        0.0000000000000000     
          30           1   5.1399999999999997        15.419999999999998        5.1399999999999997     
          31           1   5.1399999999999997        15.419999999999998        10.279999999999999     
          32           1   5.1399999999999997        15.419999999999998        15.419999999999998     
          33           1   10.279999999999999        0.0000000000000000        0.0000000000000000     
          34           1   10.279999999999999        0.0000000000000000        5.1399999999999997     
          35           1   10.279999999999999        0.0000000000000000        10.279999999999999     
          36           1   10.279999999999999        0.0000000000000000        15.419999999999998     
          37           1   10.279999999999999        5.1399999999999997        0.0000000000000000     
          38           1   10.279999999999999        5.1399999999999997        5.1399999999999997     
          39           1   10.279999999999999        5.1399999999999997        10.279999999999999     
          40           1   10.279999999999999        5.1399999999999997        15.419999999999998     
          41           1   10.279999999999999        10.279999999999999        0.0000000000000000     
          42           1   10.279999999999999        10.279999999999999        5.1399999999999997     
          43           1   10.279999999999999        10.279999999999999        10.279999999999999     
          44           1   10.279999999999999        10.279999999999999        15.419999999999998     
          45           1   10.279999999999999        15.419999999999998        0.0000000000000000     
          46           1   10.279999999999999        15.419999999999998        5.1399999999999997     
          47           1   10.279999999999999        15.419999999999998        10.279999999999999     
          48           1   10.279999999999999        15.419999999999998        15.419999999999998     
          49           1   15.419999999999998        0.0000000000000000        0.0000000000000000     
          50           1   15.419999999999998        0.0000000000000000        5.1399999999999997     
          51           1   15.419999999999998        0.0000000000000000        10.279999999999999     
          52           1   15.419999999999998        0.0000000000000000        15.419999999999998     
          53           1   15.419999999999998        5.1399999999999997        0.0000000000000000     
          54           1   15.419999999999998        5.1399999999999997        5.1399999999999997     
          55           1   15.419999999999998        5.1399999999999997        10.279999999999999     
          56           1   15.419999999999998        5.1399999999999997        15.419999999999998     
          57           1   15.419999999999998        10.279999999999999        0.0000000000000000     
          58           1   15.419999999999998        10.279999999999999        5.1399999999999997     
          59           1   15.419999999999998        10.279999999999999        10.279999999999999     
          60           1   15.419999999999998        10.279999999999999        15.419999999999998     
          61           1   15.419999999999998        15.419999999999998        0.0000000000000000     
          62           1   15.419999999999998        15.419999999999998        5.1399999999999997     
          63           1   15.419999999999998        15.419999999999998        10.279999999999999     
          64           1   15.419999999999998        15.419999999999998        15.419999999999998     
          65           1   2.5699999999999998        2.5699999999999998        0.0000000000000000     
          66           1   2.5699999999999998        2.5699999999999998        5.1399999999999997     
          67           1   2.5699999999999998        2.5699999999999998        10.279999999999999     
          68           1   2.5699999999999998        2.5699999999999998        15.419999999999998     
          69           1   2.5699999999999998        7.7099999999999991        0.0000000000000000     
          70           1   2.5699999999999998        7.7099999999999991        5.1399999999999997     
          71           1   2.5699999999999998        7.7099999999999991        10.279999999999999     
          72           1   2.5699999999999998        7.7099999999999991        15.419999999999998     
          73           1   2.5699999999999998        12.850000000000000        0.0000000000000000     
          74           1   2.5699999999999998        12.850000000000000        5.1399999999999997     
          75           1   2.5699999999999998        12.850000000000000        10.279999999999999     
          76           1   2.5699999999999998        12.850000000000000        15.419999999999998     
          77           1   2.5699999999999998        17.989999999999998        0.0000000000000000     
          78           1   2.5699999999999998        17.989999999999998        5.1399999999999997     
          79           1   2.5699999999999998        17.989999999999998        10.279999999999999     
          80           1   2.5699999999999998        17.989999999999998        15.419999999999998     
          81           1   7.7099999999999991        2.5699999999999998        0.0000000000000000     
          82           1   7.7099999999999991        2.5699999999999998        5.1399999999999997     
          83           1   7.7099999999999991        2.5699999999999998        10.279999999999999     
          84           1   7.7099999999999991        2.5699999999999998        15.419999999999998     
          85           1   7.7099999999999991        7.7099999999999991        0.0000000000000000     
          86           1   7.7099999999999991        7.7099999999999991        5.1399999999999997     
          87           1   7.7099999999999991        7.7099999999999991        10.279999999999999     
          88           1   7.7099999999999991        7.7099999999999991        15.419999999999998     
          89           1   7.7099999999999991        12.850000000000000        0.0000000000000000     
          90           1   7.7099999999999991        12.850000000000000        5.1399999999999997     
          91           1   7.7099999999999991        12.850000000000000        10.279999999999999     
          92           1   7.7099999999999991        12.850000000000000        15.419999999999998     
          93           1   7.7099999999999991        17.989999999999998        0.0000000000000000     
          94           1   7.7099999999999991        17.989999999999998        5.1399999999999997     
          95           1   7.7099999999999991        17.989999999999998        10.279999999999999     
          96           1   7.7099999999999991        17.989999999999998        15.419999999999998     
          97           1   12.850000000000000        2.5699999999999998        0.0000000000000000     
          98           1   12.850000000000000        2.5699999999999998        5.1399999999999997     
          99           1   12.850000000000000        2.5699999999999998        10.279999999999999     
         100           1   12.850000000000000        2.5699999999999998        15.419999999999998     
         101           1   12.850000000000000        7.7099999999999991        0.0000000000000000     
         102           1   12.850000000000000        7.7099999999999991        5.1399999999999997     
         103           1   12.850000000000000        7.7099999999999991        10.279999999999999     
         104           1   12.850000000000000        7.7099999999999991        15.419999999999998     
         105           1   12.850000000000000        12.850000000000000        0.0000000000000000     
         106           1   12.850000000000000        12.850000000000000        5.1399999999999997     
         107           1   12.850000000000000        12.850000000000000        10.279999999999999     
         108           1   12.850000000000000        12.850000000000000        15.419999999999998     
         109           1   12.850000000000000        17.989999999999998        0.0000000000000000     
         110           1   12.850000000000000        17.989999999999998        5.1399999999999997     
         111           1   12.850000000000000        17.989999999999998        10.279999999999999     
         112           1   12.850000000000000        17.989999999999998        15.419999999999998     
         113           1   17.989999999999998        2.5699999999999998        0.0000000000000000     
         114           1   17.989999999999998        2.5699999999999998        5.1399999999999997     
         115           1   17.989999999999998        2.5699999999999998        10.279999999999999     
         116           1   17.989999999999998        2.5699999999999998        15.419999999999998     
         117           1   17.989999999999998        7.7099999999999991        0.0000000000000000     
         118           1   17.989999999999998        7.7099999999999991        5.1399999999999997     
         119           1   17.989999999999998        7.7099999999999991        10.279999999999999     
         120           1   17.989999999999998        7.7099999999999991        15.419999999999998     
         121           1   17.989999999999998        12.850000000000000        0.0000000000000000     
         122           1   17.989999999999998        12.850000000000000        5.1399999999999997     
         123           1   17.989999999999998        12.850000000000000        10.279999999999999     
         124           1   17.989999999999998        12.850000000000000        15.419999999999998     
         125           1   17.989999999999998        17.989999999999998        0.0000000000000000     
         126           1   17.989999999999998        17.989999999999998        5.1399999999999997     
         127           1   17.989999999999998        17.989999999999998        10.279999999999999     
         128           1   17.989999999999998        17.989999999999998        15.419999999999998     
         129           1   0.0000000000000000        2.5699999999999998        2.5699999999999998     
         130           1   0.0000000000000000        2.5699999999999998        7.7099999999999991     
         131           1   0.0000000000000000        2.5699999999999998        12.850000000000000     
         132           1   0.0000000000000000        2.5699999999999998        17.989999999999998     
         133           1   0.0000000000000000        7.7099999999999991        2.5699999999999998     
         134           1   0.0000000000000000        7.7099999999999991        7.7099999999999991     
         135           1   0.0000000000000000        7.7099999999999991        12.850000000000000     
         136           1   0.0000000000000000        7.7099999999999991        17.989999999999998     
         137           1   0.0000000000000000        12.850000000000000        2.5699999999999998     
         138           1   0.0000000000000000        12.850000000000000        7.7099999999999991     
         139           1   0.0000000000000000        12.850000000000000        12.850000000000000     
         140           1   0.0000000000000000        12.850000000000000        17.989999999999998     
         141           1   0.0000000000000000        17.989999999999998        2.5699999999999998     
         142           1   0.0000000000000000        17.989999999999998        7.7099999999999991     
         143           1   0.0000000000000000        17.989999999999998        12.850000000000000     
         144           1   0.0000000000000000        17.989999999999998        17.989999999999998     
         145           1   5.1399999999999997        2.5699999999999998        2.5699999999999998     
         146           1   5.1399999999999997        2.5699999999999998        7.7099999999999991     
         147           1   5.1399999999999997        2.5699999999999998        12.850000000000000     
         148           1   5.1399999999999997        2.5699999999999998        17.989999999999998     
         149           1   5.1399999999999997        7.7099999999999991        2.5699999999999998     
         150           1   5.1399999999999997        7.7099999999999991        7.7099999999999991     
         151           1   5.1399999999999997        7.7099999999999991        12.850000000000000     
         152           1   5.1399999999999997        7.7099999999999991        17.989999999999998     
         153           1   5.1399999999999997        12.850000000000000        2.5699999999999998     
         154           1   5.1399999999999997        12.850000000000000        7.7099999999999991     
         155           1   5.1399999999999997        12.850000000000000        12.850000000000000     
         156           1   5.1399999999999997        12.850000000000000        17.989999999999998     
         157           1   5.1399999999999997        17.989999999999998        2.5699999999999998     
         158           1   5.1399999999999997        17.989999999999998        7.7099999999999991     
         159           1   5.1399999999999997        17.989999999999998        12.850000000000000     
         160           1   5.1399999999999997        17.989999999999998        17.989999999999998     
         161           1   10.279999999999999        2.5699999999999998        2.5699999999999998     
         162           1   10.279999999999999        2.5699999999999998        7.7099999999999991     
         163           1   10.279999999999999        2.5699999999999998        12.850000000000000     
         164           1   10.279999999999999        2.5699999999999998        17.989999999999998     
         165           1   10.279999999999999        7.7099999999999991        2.5699999999999998     
         166           1   10.279999999999999        7.7099999999999991        7.7099999999999991     
         167           1   10.279999999999999        7.7099999999999991        12.850000000000000     
         168           1   10.279999999999999        7.7099999999999991        17.989999999999998     
         169           1   10.279999999999999        12.850000000000000        2.5699999999999998     
         170           1   10.279999999999999        12.850000000000000        7.7099999999999991     
         171           1   10.279999999999999        12.850000000000000        12.850000000000000     
         172           1   10.279999999999999        12.850000000000000        17.989999999999998     
         173           1   10.279999999999999        17.989999999999998        2.5699999999999998     
         174           1   10.279999999999999        17.989999999999998        7.7099999999999991     
         175           1   10.279999999999999        17.989999999999998        12.850000000000000     
         176           1   10.279999999999999        17.989999999999998        17.989999999999998     
         177           1   15.419999999999998        2.5699999999999998        2.5699999999999998     
         178           1   15.419999999999998        2.5699999999999998        7.7099999999999991     
         179           1   15.419999999999998        2.5699999999999998        12.850000000000000     
         180           1   15.419999999999998        2.5699999999999998        17.989999999999998     
         181           1   15.419999999999998        7.7099999999999991        2.5699999999999998     
         182           1   15.419999999999998        7.7099999999999991        7.7099999999999991     
         183           1   15.419999999999998        7.7099999999999991        12.850000000000000     
         184           1   15.419999999999998        7.7099999999999991        17.989999999999998     
         185           1   15.419999999999998        12.850000000000000        2.5699999999999998     
         186           1   15.419999999999998        12.850000000000000        7.7099999999999991     
         187           1   15.419999999999998        12.850000000000000        12.850000000000000     
         188           1   15.419999999999998        12.850000000000000        17.989999999999998     
         189           1   15.419999999999998        17.989999999999998        2.5699999999999998     
         190           1   15.419999999999998        17.989999999999998        7.7099999999999991     
         191           1   15.419999999999998        17.989999999999998        12.850000000000000     
         192           1   15.419999999999998        17.989999999999998        17.989999999999998     
         193           1   2.5699999999999998        0.0000000000000000        2.5699999999999998     
         194           1   2.5699999999999998        0.0000000000000000        7.7099999999999991     
         195           1   2.5699999999999998        0.0000000000000000        12.850000000000000     
         196           1   2.5699999999999998        0.0000000000000000        17.989999999999998     
         197           1   2.5699999999999998        5.1399999999999997        2.5699999999999998     
         198           1   2.5699999999999998        5.1399999999999997        7.7099999999999991     
         199           1   2.5699999999999998        5.1399999999999997        12.850000000000000     
         200           1   2.5699999999999998        5.1399999999999997        17.989999999999998     
         201           1   2.5699999999999998        10.279999999999999        2.5699999999999998     
         202           1   2.5699999999999998        10.279999999999999        7.7099999999999991     
         203           1   2.5699999999999998        10.279999999999999        12.850000000000000     
         204           1   2.5699999999999998        10.279999999999999        17.989999999999998     
         205           1   2.5699999999999998        15.419999999999998        2.5699999999999998     
         206           1   2.5699999999999998        15.419999999999998        7.7099999999999991     
         207           1   2.5699999999999998        15.419999999999998        12.850000000000000     
         208           1   2.5699999999999998        15.419999999999998        17.989999999999998     
         209           1   7.7099999999999991        0.0000000000000000        2.5699999999999998     
         210           1   7.7099999999999991        0.0000000000000000        7.7099999999999991     
         211           1   7.7099999999999991        0.0000000000000000        12.850000000000000     
         212           1   7.7099999999999991        0.0000000000000000        17.989999999999998     
         213           1   7.7099999999999991        5.1399999999999997        2.5699999999999998     
         214           1   7.7099999999999991        5.1399999999999997        7.7099999999999991     
         215           1   7.7099999999999991        5.1399999999999997        12.850000000000000     
         216           1   7.7099999999999991        5.1399999999999997        17.989999999999998     
         217           1   7.7099999999999991        10.279999999999999        2.5699999999999998     
         218           1   7.7099999999999991        10.279999999999999        7.7099999999999991     
         219           1   7.7099999999999991        10.279999999999999        12.850000000000000     
         220           1   7.7099999999999991        10.279999999999999        17.989999999999998     
         221           1   7.7099999999999991        15.419999999999998        2.5699999999999998     
         222           1   7.7099999999999991        15.419999999999998        7.7099999999999991     
         223           1   7.7099999999999991        15.419999999999998        12.850000000000000     
         224           1   7.7099999999999991        15.419999999999998        17.989999999999998     
         225           1   12.850000000000000        0.0000000000000000        2.5699999999999998     
         226           1   12.850000000000000        0.0000000000000000        7.7099999999999991     
         227           1   12.850000000000000        0.0000000000000000        12.850000000000000     
         228           1   12.850000000000000        0.0000000000000000        17.989999999999998     
         229           1   12.850000000000000        5.1399999999999997        2.5699999999999998     
         230           1   12.850000000000000        5.1399999999999997        7.7099999999999991     
         231           1   12.850000000000000        5.1399999999999997        12.850000000000000     
         232           1   12.850000000000000        5.1399999999999997        17.989999999999998     
         233           1   12.850000000000000        10.279999999999999        2.5699999999999998     
         234           1   12.850000000000000        10.279999999999999        7.7099999999999991     
         235           1   12.850000000000000        10.279999999999999        12.850000000000000     
         236           1   12.850000000000000        10.279999999999999        17.989999999999998     
         237           1   12.850000000000000        15.419999999999998        2.5699999999999998     
         238           1   12.850000000000000        15.419999999999998        7.7099999999999991     
         239           1   12.850000000000000        15.419999999999998        12.850000000000000     
         240           1   12.850000000000000        15.419999999999998        17.989999999999998     
         241           1   17.989999999999998        0.0000000000000000        2.5699999999999998     
         242           1   17.989999999999998        0.0000000000000000        7.7099999999999991     
         243           1   17.989999999999998        0.0000000000000000        12.850000000000000     
         244           1   17.989999999999998        0.0000000000000000        17.989999999999998     
         245           1   17.989999999999998        5.1399999999999997        2.5699999999999998     
         246           1   17.989999999999998        5.1399999999999997        7.7099999999999991     
         247           1   17.989999999999998        5.1399999999999997        12.850000000000000     
         248           1   17.989999999999998        5.1399999999999997        17.989999999999998     
         249           1   17.989999999999998        10.279999999999999        2.5699999999999998     
         250           1   17.989999999999998        10.279999999999999        7.7099999999999991     
         251           1   17.989999999999998        10.279999999999999        12.850000000000000     
         252           1   17.989999999999998        10.279999999999999        17.989999999999998     
         253           1   17.989999999999998        15.419999999999998        2.5699999999999998     
         254           1   17.989999999999998        15.419999999999998        7.7099999999999991     
         255           1   17.989999999999998        15.419999999999998        12.850000000000000     
         256           1   17.989999999999998        15.419999999999998        17.989999999999998     
