LAMMPS (29 Sep 2021 - Update 1)
Reading data file ...
  triclinic box = (0.0000000 0.0000000 0.0000000) to (10.640000 9.2145103 10.460000) with tilt (0.0000000 0.0000000 0.0000000)
  1 by 1 by 1 MPI processor grid
  reading atoms ...
  64 atoms
  read_data CPU = 0.001 seconds
Neighbor list info ...
  update every 1 steps, delay 0 steps, check yes
  max neighbors/atom: 2000, page size: 100000
  master list distance cutoff = 7
  ghost atom cutoff = 7
  binsize = 3.5, bins = 4 3 3
  1 neighbor lists, perpetual/occasional/extra = 1 0 0
  (1) pair mlip, perpetual
      attributes: full, newton on
      pair build: full/bin/atomonly
      stencil: full/bin/3d
      bin: standard
Setting up Verlet run ...
  Unit style    : metal
  Current step  : 0
  Time step     : 0.001
Per MPI rank memory allocation (min/avg/max) = 3.089 | 3.089 | 3.089 Mbytes
Step Time Temp Volume Press 
       0            0         1380    1025.5234   -21915.101 
       1        0.001    1379.1871    1025.5234   -21884.893 
       2        0.002     1376.753    1025.5234   -21794.446 
       3        0.003    1372.7096    1025.5234   -21644.152 
       4        0.004    1367.0744    1025.5234   -21434.589 
       5        0.005    1359.8702    1025.5234   -21166.519 
       6        0.006    1351.1254    1025.5234   -20840.885 
       7        0.007    1340.8737    1025.5234   -20459.152 
       8        0.008    1329.1552    1025.5234   -20023.535 
       9        0.009    1316.0151    1025.5234   -19534.264 
      10         0.01    1301.5045    1025.5234   -18996.106 
Loop time of 0.220723 on 1 procs for 10 steps with 64 atoms

Performance: 3.914 ns/day, 6.131 hours/ns, 45.306 timesteps/s
94.5% CPU use with 1 MPI tasks x no OpenMP threads

MPI task timing breakdown:
Section |  min time  |  avg time  |  max time  |%varavg| %total
---------------------------------------------------------------
Pair    | 0.22059    | 0.22059    | 0.22059    |   0.0 | 99.94
Neigh   | 0          | 0          | 0          |   0.0 |  0.00
Comm    | 3.4677e-05 | 3.4677e-05 | 3.4677e-05 |   0.0 |  0.02
Output  | 5.1439e-05 | 5.1439e-05 | 5.1439e-05 |   0.0 |  0.02
Modify  | 3.1393e-05 | 3.1393e-05 | 3.1393e-05 |   0.0 |  0.01
Other   |            | 1.204e-05  |            |       |  0.01

Nlocal:        64.0000 ave          64 max          64 min
Histogram: 1 0 0 0 0 0 0 0 0 0
Nghost:        886.000 ave         886 max         886 min
Histogram: 1 0 0 0 0 0 0 0 0 0
Neighs:         0.00000 ave           0 max           0 min
Histogram: 1 0 0 0 0 0 0 0 0 0
FullNghs:      5504.00 ave        5504 max        5504 min
Histogram: 1 0 0 0 0 0 0 0 0 0

Total # of neighbors = 5504
Ave neighs/atom = 86.000000
Neighbor list builds = 0
Dangerous builds = 0
Setting up Verlet run ...
  Unit style    : metal
  Current step  : 10
  Time step     : 0.001
Per MPI rank memory allocation (min/avg/max) = 3.089 | 3.089 | 3.089 Mbytes
Step Time Temp Volume Press 
      10         0.01    1301.5045    1025.5234   -18996.106 
      11        0.011    1285.6809    1025.5234    -18412.53 
      12        0.012    1268.6054    1025.5234   -17790.564 
      13        0.013    1250.3412    1025.5234   -17143.206 
      14        0.014    1230.9577    1025.5234   -16464.304 
      15        0.015    1210.5306    1025.5234   -15754.417 
      16        0.016    1189.1403    1025.5234   -15019.342 
      17        0.017    1166.8715    1025.5234   -14262.055 
      18        0.018    1143.8133    1025.5234   -13482.634 
      19        0.019    1120.0588    1025.5234     -12684.7 
      20         0.02    1095.7048    1025.5234   -11874.078 
      21        0.021    1070.8516    1025.5234   -11049.912 
      22        0.022    1045.6026    1025.5234   -10214.893 
      23        0.023    1020.0631    1025.5234   -9371.0285 
      24        0.024    994.33959    1025.5234   -8523.8075 
      25        0.025    968.53913    1025.5234   -7675.0547 
      26        0.026    942.76852    1025.5234   -6825.0869 
      27        0.027     917.1335    1025.5234   -5976.9786 
      28        0.028    891.73775    1025.5234   -5134.2442 
      29        0.029    866.68227    1025.5234   -4299.4855 
      30         0.03    842.06447    1025.5234   -3473.6607 
      31        0.031    817.97711    1025.5234   -2660.8693 
      32        0.032    794.50734    1025.5234   -1864.0193 
      33        0.033    771.73609    1025.5234   -1083.8111 
      34        0.034    749.73724    1025.5234   -324.98285 
      35        0.035    728.57698    1025.5234    411.99268 
      36        0.036    708.31344    1025.5234    1125.9051 
      37        0.037    688.99614    1025.5234    1814.8176 
      38        0.038    670.66555    1025.5234    2477.9321 
      39        0.039    653.35266    1025.5234    3111.4563 
      40         0.04    637.07866    1025.5234    3712.9447 
      41        0.041    621.85565    1025.5234    4285.8623 
      42        0.042    607.68678    1025.5234    4829.8456 
      43        0.043    594.56621    1025.5234    5344.3716 
      44        0.044    582.47939    1025.5234    5829.1772 
      45        0.045    571.40362    1025.5234    6284.4592 
      46        0.046    561.30858    1025.5234    6709.0489 
      47        0.047    552.15719    1025.5234    7104.9011 
      48        0.048    543.90631    1025.5234    7472.6967 
      49        0.049    536.50756    1025.5234    7813.9179 
      50         0.05    529.90815    1025.5234    8129.3682 
      51        0.051    524.05179    1025.5234    8421.0953 
      52        0.052    518.87964    1025.5234    8690.8155 
      53        0.053    514.33109    1025.5234    8939.2392 
      54        0.054    510.34467    1025.5234       9168.6 
      55        0.055    506.85878    1025.5234    9380.5782 
      56        0.056    503.81242    1025.5234    9575.7077 
      57        0.057    501.14598    1025.5234    9755.5581 
      58        0.058    498.80184    1025.5234    9921.6495 
      59        0.059    496.72501    1025.5234    10076.201 
      60         0.06    494.86387    1025.5234    10221.673 
      61        0.061     493.1704    1025.5234    10358.886 
      62        0.062    491.60043    1025.5234    10488.701 
      63        0.063    490.11393    1025.5234    10611.123 
      64        0.064    488.67514    1025.5234    10726.314 
      65        0.065    487.25293    1025.5234    10836.136 
      66        0.066    485.82088    1025.5234    10942.138 
      67        0.067    484.35718    1025.5234     11043.63 
      68        0.068    482.84451    1025.5234    11142.418 
      69        0.069    481.27008    1025.5234     11239.45 
      70         0.07    479.62538    1025.5234    11333.975 
      71        0.071    477.90595    1025.5234    11426.171 
      72        0.072    476.11128    1025.5234    11517.135 
      73        0.073    474.24449    1025.5234    11607.113 
      74        0.074    472.31206    1025.5234    11696.594 
      75        0.075    470.32347    1025.5234    11785.308 
      76        0.076    468.29087    1025.5234    11872.547 
      77        0.077     466.2287    1025.5234    11958.325 
      78        0.078    464.15299    1025.5234    12044.477 
      79        0.079    462.08146    1025.5234    12127.286 
      80         0.08    460.03367    1025.5234    12207.344 
      81        0.081    458.03008    1025.5234    12283.409 
      82        0.082    456.09192    1025.5234    12356.168 
      83        0.083    454.24087    1025.5234    12425.109 
      84        0.084    452.49882    1025.5234    12488.914 
      85        0.085    450.88766    1025.5234    12546.647 
      86        0.086    449.42893    1025.5234    12597.722 
      87        0.087    448.14331    1025.5234    12642.774 
      88        0.088    447.05054    1025.5234    12680.949 
      89        0.089    446.16927    1025.5234    12712.066 
      90         0.09    445.51689    1025.5234    12735.021 
      91        0.091     445.1095    1025.5234    12747.979 
      92        0.092    444.96154    1025.5234    12752.644 
      93        0.093    445.08543    1025.5234    12748.861 
      94        0.094    445.49163    1025.5234    12736.388 
      95        0.095    446.18866    1025.5234    12715.187 
      96        0.096    447.18304    1025.5234    12685.284 
      97        0.097    448.47908    1025.5234    12646.364 
      98        0.098    450.07884    1025.5234    12596.332 
      99        0.099    451.98216    1025.5234     12534.62 
     100          0.1    454.18702    1025.5234    12462.028 
Loop time of 1.76695 on 1 procs for 90 steps with 64 atoms

Performance: 4.401 ns/day, 5.454 hours/ns, 50.935 timesteps/s
100.0% CPU use with 1 MPI tasks x no OpenMP threads

MPI task timing breakdown:
Section |  min time  |  avg time  |  max time  |%varavg| %total
---------------------------------------------------------------
Pair    | 1.7659     | 1.7659     | 1.7659     |   0.0 | 99.94
Neigh   | 0.00020194 | 0.00020194 | 0.00020194 |   0.0 |  0.01
Comm    | 0.00030134 | 0.00030134 | 0.00030134 |   0.0 |  0.02
Output  | 0.00033036 | 0.00033036 | 0.00033036 |   0.0 |  0.02
Modify  | 0.00016309 | 0.00016309 | 0.00016309 |   0.0 |  0.01
Other   |            | 7.498e-05  |            |       |  0.00

Nlocal:        64.0000 ave          64 max          64 min
Histogram: 1 0 0 0 0 0 0 0 0 0
Nghost:        880.000 ave         880 max         880 min
Histogram: 1 0 0 0 0 0 0 0 0 0
Neighs:         0.00000 ave           0 max           0 min
Histogram: 1 0 0 0 0 0 0 0 0 0
FullNghs:      5636.00 ave        5636 max        5636 min
Histogram: 1 0 0 0 0 0 0 0 0 0

Total # of neighbors = 5636
Ave neighs/atom = 88.062500
Neighbor list builds = 1
Dangerous builds = 0
Setting up Verlet run ...
  Unit style    : metal
  Current step  : 100
  Time step     : 0.001
Per MPI rank memory allocation (min/avg/max) = 3.089 | 3.089 | 3.089 Mbytes
Step Time Temp Volume Press 
     100          0.1    454.18702    1025.5234    12462.028 
     110         0.11    490.95898    1025.5234    11293.317 
     120         0.12    542.88133    1025.5234      9686.87 
     130         0.13    590.19679    1025.5234    8217.6359 
     140         0.14    621.74247    1025.5234    7210.6214 
     150         0.15    639.90735    1025.5234    6623.6884 
     160         0.16    652.93207    1025.5234    6280.0849 
     170         0.17    662.86595    1025.5234    6196.7177 
     180         0.18    661.32117    1025.5234    6698.7519 
     190         0.19    641.15971    1025.5234     7924.385 
     200          0.2    612.32592    1025.5234    9420.2952 
     210         0.21     600.2184    1025.5234    10375.262 
     220         0.22    624.54767    1025.5234    10220.858 
     230         0.23    679.45222    1025.5234    9159.4572 
     240         0.24    735.15383    1025.5234    8013.3386 
     250         0.25    759.64219    1025.5234    7712.5611 
     260         0.26    740.23469    1025.5234    8734.1088 
     270         0.27    691.02559    1025.5234    10711.733 
     280         0.28    644.92275    1025.5234    12643.024 
     290         0.29    630.56732    1025.5234      13582.2 
     300          0.3    651.70064    1025.5234    13294.136 
     310         0.31    691.30126    1025.5234    12251.091 
     320         0.32    731.34434    1025.5234    11043.409 
     330         0.33    761.93455    1025.5234    10073.172 
     340         0.34    779.52468    1025.5234    9469.0815 
     350         0.35    789.57757    1025.5234    9083.8667 
     360         0.36    797.69837    1025.5234    8835.3023 
     370         0.37    794.46051    1025.5234    8960.3154 
     380         0.38    769.49876    1025.5234    9730.1516 
     390         0.39    733.33589    1025.5234    10837.983 
     400          0.4    707.09261    1025.5234    11786.744 
     410         0.41    700.59397    1025.5234    12166.734 
     420         0.42    708.56518    1025.5234    12044.074 
     430         0.43    720.24297    1025.5234    11648.028 
     440         0.44    728.38469    1025.5234    11187.557 
     450         0.45    730.62014    1025.5234    10761.524 
     460         0.46    724.27169    1025.5234    10391.538 
     470         0.47    705.86346    1025.5234    10227.605 
     480         0.48    681.62931    1025.5234    10147.282 
     490         0.49    669.23976    1025.5234      9710.51 
     500          0.5    677.38404    1025.5234    8627.3802 
     510         0.51    692.02966    1025.5234    7331.4352 
     520         0.52    692.79729    1025.5234    6420.5243 
     530         0.53    673.99164    1025.5234    6114.7555 
     540         0.54    647.41386    1025.5234    6124.9289 
     550         0.55    629.44286    1025.5234    5959.4682 
     560         0.56    622.76592    1025.5234    5546.4456 
     570         0.57     616.1582    1025.5234    5227.4172 
     580         0.58    601.09019    1025.5234    5225.7541 
     590         0.59     581.5901    1025.5234    5480.0037 
     600          0.6    569.42896    1025.5234    5609.3362 
     610         0.61    573.44086    1025.5234     5352.005 
     620         0.62    593.33088    1025.5234    4638.5403 
     630         0.63    621.79349    1025.5234    3673.4961 
     640         0.64    650.85705    1025.5234    2752.0611 
     650         0.65    675.72202    1025.5234    1947.6526 
     660         0.66    693.21209    1025.5234    1431.9619 
     670         0.67    699.23137    1025.5234    1384.6492 
     680         0.68    688.99764    1025.5234    1933.5701 
     690         0.69    661.18202    1025.5234    3062.0382 
     700          0.7    623.62958    1025.5234    4480.1814 
     710         0.71    593.06483    1025.5234    5726.0233 
     720         0.72    587.20857    1025.5234    6085.4075 
     730         0.73    614.91922    1025.5234    5326.8419 
     740         0.74    666.62139    1025.5234    3798.7757 
     750         0.75    715.39137    1025.5234    2401.6661 
     760         0.76    735.90202    1025.5234    1874.2341 
     770         0.77    724.36369    1025.5234    2210.2599 
     780         0.78     697.6914    1025.5234    3081.5771 
     790         0.79    673.45398    1025.5234    4033.6995 
     800          0.8    654.82911    1025.5234    4836.2928 
     810         0.81    638.25643    1025.5234    5505.4437 
     820         0.82    627.89114    1025.5234    5949.2595 
     830         0.83    633.38651    1025.5234    6009.9514 
     840         0.84     656.0572    1025.5234    5598.5172 
     850         0.85    683.04585    1025.5234    5189.2274 
     860         0.86    695.61706    1025.5234    5281.9802 
     870         0.87    684.39292    1025.5234    6024.8291 
     880         0.88    657.84164    1025.5234    7119.7781 
     890         0.89    633.96756    1025.5234    8178.6897 
     900          0.9    628.24054    1025.5234    8690.9768 
     910         0.91    645.10064    1025.5234    8525.6971 
     920         0.92    667.01694    1025.5234    8341.7591 
     930         0.93    664.87281    1025.5234    8837.8583 
     940         0.94    630.83887    1025.5234    10172.787 
     950         0.95    590.44565    1025.5234    11644.494 
     960         0.96    583.25897    1025.5234    12216.494 
     970         0.97    624.41906    1025.5234    11419.569 
     980         0.98    689.98749    1025.5234    9710.5073 
     990         0.99    749.85186    1025.5234    7983.9243 
    1000            1    791.96879    1025.5234    6669.5241 
Loop time of 17.6196 on 1 procs for 900 steps with 64 atoms

Performance: 4.413 ns/day, 5.438 hours/ns, 51.079 timesteps/s
100.0% CPU use with 1 MPI tasks x no OpenMP threads

MPI task timing breakdown:
Section |  min time  |  avg time  |  max time  |%varavg| %total
---------------------------------------------------------------
Pair    | 17.611     | 17.611     | 17.611     |   0.0 | 99.95
Neigh   | 0.0031818  | 0.0031818  | 0.0031818  |   0.0 |  0.02
Comm    | 0.003016   | 0.003016   | 0.003016   |   0.0 |  0.02
Output  | 0.00038077 | 0.00038077 | 0.00038077 |   0.0 |  0.00
Modify  | 0.001569   | 0.001569   | 0.001569   |   0.0 |  0.01
Other   |            | 0.0006855  |            |       |  0.00

Nlocal:        64.0000 ave          64 max          64 min
Histogram: 1 0 0 0 0 0 0 0 0 0
Nghost:        862.000 ave         862 max         862 min
Histogram: 1 0 0 0 0 0 0 0 0 0
Neighs:         0.00000 ave           0 max           0 min
Histogram: 1 0 0 0 0 0 0 0 0 0
FullNghs:      5650.00 ave        5650 max        5650 min
Histogram: 1 0 0 0 0 0 0 0 0 0

Total # of neighbors = 5650
Ave neighs/atom = 88.281250
Neighbor list builds = 16
Dangerous builds = 0
Setting up Verlet run ...
  Unit style    : metal
  Current step  : 1000
  Time step     : 0.001
Per MPI rank memory allocation (min/avg/max) = 3.089 | 3.089 | 3.089 Mbytes
Step Time Temp Volume Press 
    1000            1    791.96879    1025.5234    6669.5241 
    1100          1.1      704.876    1025.5234     10264.51 
    1200          1.2    585.35082    1025.5234    11516.781 
    1300          1.3    726.27408    1025.5234    6613.4594 
    1400          1.4    661.29708    1025.5234    8341.6239 
    1500          1.5    848.08476    1025.5234    2326.1771 
    1600          1.6    641.06782    1025.5234    12376.557 
    1700          1.7    647.92221    1025.5234    13892.014 
    1800          1.8    718.59226    1025.5234    8000.0336 
    1900          1.9    599.83606    1025.5234    7099.6214 
    2000            2    609.04314    1025.5234    5022.4382 
    2100          2.1    731.69784    1025.5234     3640.229 
    2200          2.2    816.05872    1025.5234    9458.5896 
    2300          2.3    668.49996    1025.5234    15593.009 
    2400          2.4    814.77937    1025.5234    5063.1812 
    2500          2.5    609.32393    1025.5234    6765.9988 
    2600          2.6    714.72615    1025.5234    3214.9173 
    2700          2.7    619.64778    1025.5234    6484.0847 
    2800          2.8     746.7012    1025.5234    4777.7698 
    2900          2.9    700.92614    1025.5234    13736.144 
    3000            3    832.33374    1025.5234    14608.731 
    3100          3.1    723.90719    1025.5234    12974.128 
    3200          3.2    603.16541    1025.5234    15020.435 
    3300          3.3    723.50689    1025.5234    9581.9468 
    3400          3.4    671.13892    1025.5234    6589.4937 
    3500          3.5    550.11815    1025.5234    7016.4391 
    3600          3.6    705.44016    1025.5234    3769.3064 
    3700          3.7    813.99465    1025.5234    5461.6371 
    3800          3.8    796.57276    1025.5234    10029.731 
    3900          3.9    748.81551    1025.5234    15680.853 
    4000            4    717.03444    1025.5234    12486.629 
    4100          4.1    675.74004    1025.5234    6998.7507 
    4200          4.2    679.07267    1025.5234    2577.1194 
    4300          4.3    585.32455    1025.5234    5595.0528 
    4400          4.4    789.86797    1025.5234    3776.0835 
    4500          4.5    757.59739    1025.5234    9399.8491 
    4600          4.6    773.81438    1025.5234    6139.1857 
    4700          4.7    699.36132    1025.5234    4202.1307 
    4800          4.8    699.67647    1025.5234    4046.8411 
    4900          4.9    650.68604    1025.5234    11279.341 
    5000            5    755.28067    1025.5234    11915.788 
    5100          5.1    603.87047    1025.5234    11989.238 
    5200          5.2    626.13463    1025.5234     6714.354 
    5300          5.3    658.65049    1025.5234   -342.55123 
    5400          5.4    620.60064    1025.5234   -1444.4875 
    5500          5.5    666.24094    1025.5234    1504.9892 
    5600          5.6    613.81779    1025.5234    7063.1908 
    5700          5.7    681.83696    1025.5234    6984.0259 
    5800          5.8    752.43809    1025.5234    9445.7292 
    5900          5.9    754.43851    1025.5234    9301.7238 
    6000            6    593.72735    1025.5234    7897.9777 
    6100          6.1    593.85913    1025.5234    3965.3592 
    6200          6.2    558.44976    1025.5234    9322.0918 
    6300          6.3    648.36932    1025.5234    9653.5028 
    6400          6.4    692.46991    1025.5234    6263.5907 
    6500          6.5    659.12792    1025.5234    8879.1979 
    6600          6.6    776.20165    1025.5234    13073.881 
    6700          6.7     871.5708    1025.5234    15711.499 
    6800          6.8    727.76762    1025.5234    13610.384 
    6900          6.9    633.52687    1025.5234    8622.0454 
    7000            7     645.8178    1025.5234    5019.0142 
    7100          7.1    694.96943    1025.5234    4162.5812 
    7200          7.2    654.73452    1025.5234    10564.548 
    7300          7.3    760.56863    1025.5234    14877.145 
    7400          7.4    812.93135    1025.5234    13497.254 
    7500          7.5    635.18162    1025.5234    13771.116 
    7600          7.6    691.44384    1025.5234    9660.3677 
    7700          7.7     752.2236    1025.5234    5199.3295 
    7800          7.8    654.40672    1025.5234    4567.8344 
    7900          7.9    630.63305    1025.5234    6529.5411 
    8000            8    685.42518    1025.5234    8864.6546 
    8100          8.1    728.65285    1025.5234    7448.3537 
    8200          8.2     753.3723    1025.5234    4747.4009 
    8300          8.3    630.84205    1025.5234    4056.6145 
    8400          8.4    730.75746    1025.5234    238.17681 
    8500          8.5    724.74173    1025.5234    3763.5652 
    8600          8.6    753.14955    1025.5234    12427.542 
    8700          8.7     764.1082    1025.5234    10286.908 
    8800          8.8    628.25997    1025.5234    10843.444 
    8900          8.9    655.50147    1025.5234    10034.058 
    9000            9    631.35007    1025.5234    11712.379 
    9100          9.1    791.04501    1025.5234    4612.5307 
    9200          9.2    664.58608    1025.5234    6723.0355 
    9300          9.3    606.72625    1025.5234    11461.147 
    9400          9.4    749.42511    1025.5234    8903.5455 
    9500          9.5    622.91421    1025.5234    14867.594 
    9600          9.6    725.00535    1025.5234    8962.4841 
    9700          9.7    680.06193    1025.5234    11221.863 
    9800          9.8     747.3776    1025.5234    6264.4012 
    9900          9.9    638.84993    1025.5234    7100.3729 
   10000           10    755.56115    1025.5234     4042.638 
Loop time of 175.585 on 1 procs for 9000 steps with 64 atoms

Performance: 4.429 ns/day, 5.419 hours/ns, 51.257 timesteps/s
100.0% CPU use with 1 MPI tasks x no OpenMP threads

MPI task timing breakdown:
Section |  min time  |  avg time  |  max time  |%varavg| %total
---------------------------------------------------------------
Pair    | 175.5      | 175.5      | 175.5      |   0.0 | 99.95
Neigh   | 0.032386   | 0.032386   | 0.032386   |   0.0 |  0.02
Comm    | 0.02981    | 0.02981    | 0.02981    |   0.0 |  0.02
Output  | 0.00051441 | 0.00051441 | 0.00051441 |   0.0 |  0.00
Modify  | 0.015141   | 0.015141   | 0.015141   |   0.0 |  0.01
Other   |            | 0.006581   |            |       |  0.00

Nlocal:        64.0000 ave          64 max          64 min
Histogram: 1 0 0 0 0 0 0 0 0 0
Nghost:        871.000 ave         871 max         871 min
Histogram: 1 0 0 0 0 0 0 0 0 0
Neighs:         0.00000 ave           0 max           0 min
Histogram: 1 0 0 0 0 0 0 0 0 0
FullNghs:      5646.00 ave        5646 max        5646 min
Histogram: 1 0 0 0 0 0 0 0 0 0

Total # of neighbors = 5646
Ave neighs/atom = 88.218750
Neighbor list builds = 163
Dangerous builds = 0
System init for write_data ...
Total wall time: 0:03:15
