LAMMPS data file via write_data, version 29 Sep 2021, timestep = 10000

64 atoms
1 atom types

0 10.640000000001363 xlo xhi
0 9.214510296267605 ylo yhi
0 10.46 zlo zhi
0 0 0 xy xz yz

Masses

1 65.38

Atoms # atomic

1 1 1.43751845726978 5.570624480547996 4.143407864454217 0 0 0
2 1 1.1632576906787364 5.169871001998116 9.122106921266264 0 0 0
3 1 0.30921738553572464 7.718412199980753 4.06898541449658 0 0 0
4 1 0.17052331797682097 7.522577241337031 8.892883352619574 0 0 0
5 1 6.649263753479793 0.5388904976687593 4.014428336167525 0 0 0
6 1 6.136701728006013 0.8816665708799336 9.165642934031643 0 0 0
7 1 5.526199707646148 3.0899597815695836 3.9534185373496524 0 0 0
8 1 5.250523803206341 3.2114293265200207 9.160884767484571 0 0 0
9 1 1.1222052422692177 1.0090432611076767 4.006079676623525 0 0 0
10 1 1.2536603525836054 0.7925944677702575 8.836524341441088 0 0 0
11 1 0.08641434913627893 3.3854377182167683 3.792364373070957 0 0 0
12 1 10.478785845968288 2.94203919761189 8.870667354215543 -1 0 0
13 1 3.9221635867900266 0.7472985428654074 3.8155815853495123 0 0 0
14 1 3.549771566043099 0.7671981046436471 8.862522365836256 0 0 0
15 1 2.7762332340016536 3.178749426815273 4.136914351969189 0 0 0
16 1 2.4041322288009286 3.0519135140982336 8.982771169084323 0 0 0
17 1 6.730824991734372 5.283762074816002 4.126400136731249 0 0 0
18 1 6.528301777540273 5.676905116666425 8.981403296360991 0 0 0
19 1 5.343690576976773 7.559988163229625 3.9216740373279784 0 0 0
20 1 4.943529862243438 7.823231438075245 8.93777289762235 0 0 0
21 1 9.50747471132242 5.447773767951221 3.959513977757669 0 0 0
22 1 9.268085728475517 5.165430286976783 9.31296231147855 0 0 0
23 1 8.124302710732383 7.572358932525855 3.732957557126165 0 0 0
24 1 8.186509960303782 7.6740075303466995 9.005651099225268 0 0 0
25 1 4.269740197884892 5.257942082370227 3.762809118752744 0 0 0
26 1 3.9566505349137895 5.210918509349548 9.505524361818068 0 0 0
27 1 2.741173243764764 7.8903339590081965 3.688263860873506 0 0 0
28 1 2.54707854772347 7.505048891675499 9.54662929357157 0 0 0
29 1 9.232654355453983 0.7305238657138908 3.9489155264545754 0 0 0
30 1 9.28959239594752 0.6204124317288571 9.488647782900303 0 0 0
31 1 8.131161158975907 2.975346284990515 3.6277689692397663 0 0 0
32 1 8.079946041560401 3.0049208329773824 9.674302577844236 0 0 0
33 1 5.358368791574923 1.6621687652089874 1.3722557869098848 0 0 0
34 1 5.413824065317518 1.6753123863969936 5.925874810389826 0 0 0
35 1 4.271205956547726 3.7207865758438787 1.3127874185282915 0 0 0
36 1 3.936306246262502 3.659978236899463 6.740258208844021 0 0 0
37 1 2.891910487849393 6.024360488577657 1.7493302193454747 0 0 0
38 1 2.8447922844769304 6.109576261820418 6.8156242554856075 0 0 0
39 1 1.2463604151108412 8.49509199346332 1.1128678195977493 0 0 0
40 1 1.2983407153600783 8.543181560528446 6.561783002700252 0 0 0
41 1 0.0014788395404522806 1.5578801228647505 1.5153468220786446 0 0 0
42 1 10.572599905370462 1.287400652577467 6.706330390225839 -1 0 0
43 1 2.6415251499322294 1.741079175268181 1.5870216559657118 0 0 0
44 1 2.645666474431552 1.5283842784206474 6.2921077073406755 0 0 0
45 1 1.6368471289344348 3.7907890636785377 0.690458395650215 0 0 0
46 1 1.1234818326958607 3.8632603755393533 6.405280918047587 0 0 0
47 1 10.568979865090444 6.26473182714455 1.476225791063969 -1 0 0
48 1 10.580261429464311 6.221789464550099 6.38255736089092 -1 0 0
49 1 9.553977538326702 4.149942725661275 1.2564038234057329 0 0 0
50 1 9.200834297690568 3.7387259612219426 5.993503036784991 0 0 0
51 1 7.951557509488972 6.174266009136764 0.963947947284988 0 0 0
52 1 7.95125914615368 5.758400132892453 6.678086246724106 0 0 0
53 1 6.5908114901644765 8.52303356553359 1.69982115882038 0 0 0
54 1 6.671407834920434 8.613089794670712 7.074193168833204 0 0 0
55 1 9.327630959319297 8.411001769823509 1.3758749896346012 0 0 0
56 1 9.059148306412741 8.425131130540969 6.118939229311834 0 0 0
57 1 8.052005044077138 1.4811146601652034 1.3632817702012656 0 0 0
58 1 7.947099346417879 1.4499977279282512 6.3191759481587155 0 0 0
59 1 6.7319994620561845 3.9311771393331147 1.626229977605789 0 0 0
60 1 6.7998084156522935 3.5332369716571312 7.249610838246399 0 0 0
61 1 5.315211383396165 6.39809847124584 1.4621013292179754 0 0 0
62 1 5.333262171618041 6.0868464446626955 6.33947844970505 0 0 0
63 1 3.9426310532452233 8.673848916974427 1.1268641051558612 0 0 0
64 1 3.902117408200083 8.394037328304089 6.379997267299718 0 0 0

Velocities

1 -0.4459215296683406 1.4987513136808197 1.6352678255430515
2 3.818369843119435 -0.7716120920225111 1.5991455482796786
3 -5.207792345737726 -0.840210700881247 -0.10190915276604579
4 0.01209846222664153 2.2293594308405082 -1.9186506983673597
5 0.3572816691066415 0.08337218990447982 -4.954096019143675
6 -7.013798429747792 2.9178712642043156 9.966420242072587
7 -0.37708570157775906 0.012873692216862163 2.2100236904938293
8 5.6878240679917305 1.323138156478475 -4.698701714510973
9 -2.099133463982456 -1.4716376377827916 -3.2025936238074615
10 -0.25853576085676516 2.251040516337867 -0.016719648114590233
11 -2.474033780320238 -1.6969982458823976 -1.1171739069563993
12 -0.40252362251830337 -3.5684179368740727 -0.047426597148651585
13 -0.5172005245070515 -0.36946210254101525 -2.1080323869426714
14 -0.41858176021661814 0.6100174048851632 4.626180950024392
15 0.7117869323480825 2.4803563888952933 -3.5039552079314547
16 4.003491315432782 1.4937709716485155 2.143241378606723
17 -0.9383671907463429 -4.003843752297042 -0.3022000422629068
18 -1.7669245444924726 2.0496965245141587 0.33561664109092776
19 0.7102277129444167 5.187790698816941 0.4846275090885396
20 3.370756390358157 -3.4410027734727766 3.149131231823528
21 -5.295494474585046 1.069229681221374 4.984727483484056
22 1.4365885961894982 7.291997820861814 -3.584519261383644
23 0.6549835950918119 0.6924281834772006 -6.947404458487497
24 -0.47188517758342563 1.7953618556210582 6.503851266977318
25 2.2135190713821085 -5.443838935288524 -2.572232022081886
26 2.075769034266882 0.16116508387899972 4.389167202861286
27 3.3187170863316906 0.9585110349299816 0.06747811056576833
28 -0.6772104878981504 -1.6896080473682278 0.8233053438277722
29 3.2093026617902094 1.6468146864868816 2.355134008504029
30 -0.8860193245748829 1.8863614310994348 -3.2339991875189535
31 3.037201627554924 2.804139152911696 0.1556821979250466
32 0.7092480170676047 1.5179671681547842 -1.1603583828720185
33 1.2868517661389074 0.603829906817888 -2.507426075373619
34 0.8266286775999544 2.358659333319846 -1.812134709559233
35 -3.630983026118422 1.188038442666525 3.664372872256917
36 -3.014507874253333 0.8845519478228695 -5.518723053701572
37 -3.7957418427789804 6.699200452956258 0.2604840833537852
38 1.3770900614521238 3.2854293000028605 2.697436088125141
39 3.0719766175360697 1.7710225721982027 -3.925112065193388
40 1.0905152695169185 -1.7917495644852426 0.7141278750242783
41 -2.070300968367551 -3.252072387815446 -5.593857799712227
42 1.634785477855835 -4.955713355947908 -1.0848770982852103
43 1.08564973445088 -5.054440891244857 1.3667435527707625
44 1.7986968775921364 1.7223101299546977 2.5005948769771797
45 -1.3182618877369152 6.04133714843627 5.129840691767993
46 3.763493361885493 -2.865724131991876 3.0364310029136754
47 -1.0758369486068455 -4.829508279702711 -1.6364172182208403
48 -1.3344668133492419 -0.6766397323810923 3.70266723716493
49 -1.2196073136146834 0.22976390208165368 -0.8614988515863661
50 -1.5015525994383419 0.8556209389775657 -1.8385582191213161
51 -2.5648785612119425 -5.543873281503454 -2.4835010656684733
52 4.62873690607517 -2.0149068387280558 -3.6769604968200356
53 -1.836253054672957 0.19462023556582694 -1.7526057747570256
54 3.3027824200198213 -1.8968743302213258 0.0923265055736087
55 4.648922945086818 -8.837035657649176 0.10895622312413945
56 -2.8973979421987677 -3.919570230371184 0.4316356277240485
57 -0.28694285066513814 -0.8864718774376246 3.7353961512353067
58 -0.019341750273721103 -0.8802339429844945 0.5972965227342691
59 -1.948632830225739 -1.9708897906034184 -4.611688022000253
60 -6.2090672462376775 -2.876253151210372 3.2264939806990416
61 7.16445540174932 6.977403909697908 0.853939348375087
62 -6.847158509154563 3.1983303778735896 1.5152640454746806
63 1.202742494759831 -1.7036140035264813 -2.0787092144853268
64 -1.3890539570035094 -0.7199295772227892 -0.2109653416823978
