 # Something
 64 atoms
 1 atom types
 0   10.640000000001363      xlo xhi 
 0   9.2145102962676049      ylo yhi 
 0   10.460000000000001      zlo zhi 
   0.0000000000000000        0.0000000000000000        0.0000000000000000      xy xz yz
 Atoms
 
           1           1   1.3300000000001704        5.3751310061561028        3.9225000000000003     
           2           1   1.3300000000001704        5.3751310061561028        9.1524999999999999     
           3           1   0.0000000000000000        7.6787585802230041        3.9225000000000003     
           4           1   0.0000000000000000        7.6787585802230041        9.1524999999999999     
           5           1   6.6500000000008521       0.76787585802230041        3.9225000000000003     
           6           1   6.6500000000008521       0.76787585802230041        9.1524999999999999     
           7           1   5.3200000000006815        3.0715034320892016        3.9225000000000003     
           8           1   5.3200000000006815        3.0715034320892016        9.1524999999999999     
           9           1   1.3300000000001704       0.76787585802230041        3.9225000000000003     
          10           1   1.3300000000001704       0.76787585802230041        9.1524999999999999     
          11           1   0.0000000000000000        3.0715034320892016        3.9225000000000003     
          12           1   0.0000000000000000        3.0715034320892016        9.1524999999999999     
          13           1   3.9900000000005109       0.76787585802230041        3.9225000000000003     
          14           1   3.9900000000005109       0.76787585802230041        9.1524999999999999     
          15           1   2.6600000000003408        3.0715034320892016        3.9225000000000003     
          16           1   2.6600000000003408        3.0715034320892016        9.1524999999999999     
          17           1   6.6500000000008521        5.3751310061561028        3.9225000000000003     
          18           1   6.6500000000008521        5.3751310061561028        9.1524999999999999     
          19           1   5.3200000000006815        7.6787585802230041        3.9225000000000003     
          20           1   5.3200000000006815        7.6787585802230041        9.1524999999999999     
          21           1   9.3100000000011924        5.3751310061561028        3.9225000000000003     
          22           1   9.3100000000011924        5.3751310061561028        9.1524999999999999     
          23           1   7.9800000000010218        7.6787585802230041        3.9225000000000003     
          24           1   7.9800000000010218        7.6787585802230041        9.1524999999999999     
          25           1   3.9900000000005109        5.3751310061561028        3.9225000000000003     
          26           1   3.9900000000005109        5.3751310061561028        9.1524999999999999     
          27           1   2.6600000000003408        7.6787585802230041        3.9225000000000003     
          28           1   2.6600000000003408        7.6787585802230041        9.1524999999999999     
          29           1   9.3100000000011924       0.76787585802230041        3.9225000000000003     
          30           1   9.3100000000011924       0.76787585802230041        9.1524999999999999     
          31           1   7.9800000000010218        3.0715034320892016        3.9225000000000003     
          32           1   7.9800000000010218        3.0715034320892016        9.1524999999999999     
          33           1   5.3200000000006815        1.5357517160446013        1.3075000000000001     
          34           1   5.3200000000006815        1.5357517160446013        6.5375000000000005     
          35           1   3.9900000000005109        3.8393792901115020        1.3075000000000001     
          36           1   3.9900000000005109        3.8393792901115020        6.5375000000000005     
          37           1   2.6600000000003408        6.1430068641784041        1.3075000000000001     
          38           1   2.6600000000003408        6.1430068641784041        6.5375000000000005     
          39           1   1.3300000000001704        8.4466344382453045        1.3075000000000001     
          40           1   1.3300000000001704        8.4466344382453045        6.5375000000000005     
          41           1   0.0000000000000000        1.5357517160446013        1.3075000000000001     
          42           1   0.0000000000000000        1.5357517160446013        6.5375000000000005     
          43           1   2.6600000000003408        1.5357517160446013        1.3075000000000001     
          44           1   2.6600000000003408        1.5357517160446013        6.5375000000000005     
          45           1   1.3300000000001704        3.8393792901115020        1.3075000000000001     
          46           1   1.3300000000001704        3.8393792901115020        6.5375000000000005     
          47           1   0.0000000000000000        6.1430068641784041        1.3075000000000001     
          48           1   0.0000000000000000        6.1430068641784041        6.5375000000000005     
          49           1   9.3100000000011924        3.8393792901115020        1.3075000000000001     
          50           1   9.3100000000011924        3.8393792901115020        6.5375000000000005     
          51           1   7.9800000000010218        6.1430068641784041        1.3075000000000001     
          52           1   7.9800000000010218        6.1430068641784041        6.5375000000000005     
          53           1   6.6500000000008521        8.4466344382453045        1.3075000000000001     
          54           1   6.6500000000008521        8.4466344382453045        6.5375000000000005     
          55           1   9.3100000000011924        8.4466344382453045        1.3075000000000001     
          56           1   9.3100000000011924        8.4466344382453045        6.5375000000000005     
          57           1   7.9800000000010218        1.5357517160446013        1.3075000000000001     
          58           1   7.9800000000010218        1.5357517160446013        6.5375000000000005     
          59           1   6.6500000000008521        3.8393792901115020        1.3075000000000001     
          60           1   6.6500000000008521        3.8393792901115020        6.5375000000000005     
          61           1   5.3200000000006815        6.1430068641784041        1.3075000000000001     
          62           1   5.3200000000006815        6.1430068641784041        6.5375000000000005     
          63           1   3.9900000000005109        8.4466344382453045        1.3075000000000001     
          64           1   3.9900000000005109        8.4466344382453045        6.5375000000000005     
