 # Something
 4 atoms
 1 atom types
 0   4.1550000000000000      xlo xhi
 0   4.1550000000000000      ylo yhi
 0   4.1550000000000000      zlo zhi
   0.0000000000000000        0.0000000000000000        0.0000000000000000      xy xz yz
 Atoms

           1           1   0.0000000000000000        0.0000000000000000        0.0000000000000000
           2           1   2.0775000000000001        0.0000000000000000        2.0775000000000001
           3           1   0.0000000000000000        2.0775000000000001        2.0775000000000001
           4           1   2.0775000000000001        2.0775000000000001        0.0000000000000000
