 # Something
 2 atoms
 1 atom types
 0   2.6600000000000010      xlo xhi 
 0   2.3036275740666077      ylo yhi 
 0   4.7880000000000003      zlo zhi 
  -1.3300000000000007        0.0000000000000000        0.0000000000000000      xy xz yz
 Atoms
 
           1           1   0.0000000000000000        1.5357517160444052        1.1970000000000001     
           2           1   1.3300000000000007       0.76787585802220248        3.5910000000000002     
