LAMMPS (29 Sep 2021 - Update 1)
Reading data file ...
  triclinic box = (0.0000000 0.0000000 0.0000000) to (10.480000 9.0759462 10.220000) with tilt (0.0000000 0.0000000 0.0000000)
  1 by 1 by 1 MPI processor grid
  reading atoms ...
  64 atoms
  read_data CPU = 0.001 seconds
Neighbor list info ...
  update every 1 steps, delay 0 steps, check yes
  max neighbors/atom: 2000, page size: 100000
  master list distance cutoff = 7
  ghost atom cutoff = 7
  binsize = 3.5, bins = 3 3 3
  1 neighbor lists, perpetual/occasional/extra = 1 0 0
  (1) pair mlip, perpetual
      attributes: full, newton on
      pair build: full/bin/atomonly
      stencil: full/bin/3d
      bin: standard
Setting up Verlet run ...
  Unit style    : metal
  Current step  : 0
  Time step     : 0.001
Per MPI rank memory allocation (min/avg/max) = 3.089 | 3.089 | 3.089 Mbytes
Step Time Temp Volume Press 
       0            0         1380    972.08467    14119.929 
       1        0.001     1379.004    972.08467    14153.269 
       2        0.002    1376.0175    972.08467    14251.738 
       3        0.003    1371.0496    972.08467    14407.122 
       4        0.004    1364.1188    972.08467    14617.984 
       5        0.005    1355.2519    972.08467    14884.522 
       6        0.006    1344.4828    972.08467    15210.272 
       7        0.007    1331.8534    972.08467    15596.559 
       8        0.008    1317.4139    972.08467    16042.937 
       9        0.009    1301.2226    972.08467     16547.42 
      10         0.01    1283.3466    972.08467    17107.829 
Loop time of 0.210097 on 1 procs for 10 steps with 64 atoms

Performance: 4.112 ns/day, 5.836 hours/ns, 47.597 timesteps/s
98.1% CPU use with 1 MPI tasks x no OpenMP threads

MPI task timing breakdown:
Section |  min time  |  avg time  |  max time  |%varavg| %total
---------------------------------------------------------------
Pair    | 0.20999    | 0.20999    | 0.20999    |   0.0 | 99.95
Neigh   | 0          | 0          | 0          |   0.0 |  0.00
Comm    | 3.3667e-05 | 3.3667e-05 | 3.3667e-05 |   0.0 |  0.02
Output  | 4.0989e-05 | 4.0989e-05 | 4.0989e-05 |   0.0 |  0.02
Modify  | 2.4434e-05 | 2.4434e-05 | 2.4434e-05 |   0.0 |  0.01
Other   |            | 1.123e-05  |            |       |  0.01

Nlocal:        64.0000 ave          64 max          64 min
Histogram: 1 0 0 0 0 0 0 0 0 0
Nghost:        886.000 ave         886 max         886 min
Histogram: 1 0 0 0 0 0 0 0 0 0
Neighs:         0.00000 ave           0 max           0 min
Histogram: 1 0 0 0 0 0 0 0 0 0
FullNghs:      6272.00 ave        6272 max        6272 min
Histogram: 1 0 0 0 0 0 0 0 0 0

Total # of neighbors = 6272
Ave neighs/atom = 98.000000
Neighbor list builds = 0
Dangerous builds = 0
Setting up Verlet run ...
  Unit style    : metal
  Current step  : 10
  Time step     : 0.001
Per MPI rank memory allocation (min/avg/max) = 3.089 | 3.089 | 3.089 Mbytes
Step Time Temp Volume Press 
      10         0.01    1283.3466    972.08467    17107.829 
      11        0.011    1263.8614    972.08467    17722.682 
      12        0.012    1242.8506    972.08467    18389.591 
      13        0.013    1220.4059    972.08467    19105.699 
      14        0.014    1196.6269    972.08467    19868.474 
      15        0.015    1171.6204    972.08467    20674.717 
      16        0.016    1145.5004    972.08467     21520.66 
      17        0.017    1118.3874    972.08467    22402.774 
      18        0.018    1090.4077    972.08467    23317.133 
      19        0.019    1061.6928    972.08467    24259.541 
      20         0.02    1032.3786    972.08467     25225.17 
      21        0.021    1002.6041    972.08467    26210.232 
      22        0.022    972.51136    972.08467    27210.186 
      23        0.023    942.24353    972.08467    28218.881 
      24        0.024     911.9442    972.08467    29233.504 
      25        0.025    881.75655    972.08467    30248.831 
      26        0.026    851.82179    972.08467    31260.552 
      27        0.027    822.27772    972.08467    32262.356 
      28        0.028    793.25783    972.08467    33252.112 
      29        0.029    764.89012    972.08467    34223.623 
      30         0.03    737.29554    972.08467    35172.729 
      31        0.031    710.58737    972.08467     36096.48 
      32        0.032    684.87038    972.08467    36993.319 
      33        0.033    660.23961    972.08467    37859.598 
      34        0.034    636.77945    972.08467     38692.14 
      35        0.035    614.56309    972.08467    39489.126 
      36        0.036    593.65199    972.08467    40248.175 
      37        0.037    574.09544    972.08467    40967.507 
      38        0.038    555.93037    972.08467    41645.508 
      39        0.039    539.18138    972.08467    42281.238 
      40         0.04    523.86074    972.08467    42871.879 
      41        0.041    509.96887    972.08467    43418.634 
      42        0.042     497.4947    972.08467    43919.718 
      43        0.043    486.41632    972.08467    44376.077 
      44        0.044    476.70191    972.08467    44787.228 
      45        0.045    468.31032    972.08467    45153.183 
      46        0.046    461.19211    972.08467    45476.065 
      47        0.047    455.29072    972.08467    45757.468 
      48        0.048    450.54347    972.08467    45998.825 
      49        0.049    446.88243    972.08467    46201.751 
      50         0.05    444.23552    972.08467    46366.945 
      51        0.051    442.52805    972.08467    46496.162 
      52        0.052    441.68379    972.08467    46592.464 
      53        0.053    441.62574    972.08467    46657.457 
      54        0.054    442.27697    972.08467    46693.858 
      55        0.055    443.56158    972.08467    46704.884 
      56        0.056    445.40534    972.08467    46691.753 
      57        0.057    447.73643    972.08467    46656.826 
      58        0.058    450.48598    972.08467    46602.615 
      59        0.059    453.58854    972.08467    46531.571 
      60         0.06    456.98227    972.08467    46446.478 
      61        0.061    460.60917    972.08467    46349.363 
      62        0.062    464.41528    972.08467    46241.836 
      63        0.063    468.35074    972.08467    46125.974 
      64        0.064     472.3698    972.08467    46002.769 
      65        0.065    476.43064    972.08467    45874.231 
      66        0.066    480.49552    972.08467    45741.509 
      67        0.067    484.53025    972.08467    45602.796 
      68        0.068    488.50415    972.08467    45461.152 
      69        0.069    492.39044    972.08467    45319.009 
      70         0.07     496.1659    972.08467      45178.4 
      71        0.071    499.81058    972.08467    45040.474 
      72        0.072    503.30757    972.08467    44906.224 
      73        0.073    506.64269    972.08467    44775.877 
      74        0.074    509.80429    972.08467    44649.631 
      75        0.075    512.78317    972.08467    44528.796 
      76        0.076     515.5727    972.08467    44414.003 
      77        0.077    518.16868    972.08467    44304.768 
      78        0.078    520.56873    972.08467    44198.277 
      79        0.079    522.77249    972.08467    44096.186 
      80         0.08    524.78214    972.08467     44000.02 
      81        0.081    526.60205    972.08467     43909.19 
      82        0.082    528.23879    972.08467    43823.962 
      83        0.083    529.70102    972.08467    43744.353 
      84        0.084    530.99949    972.08467    43670.603 
      85        0.085    532.14675    972.08467     43601.38 
      86        0.086     533.1571    972.08467    43535.361 
      87        0.087    534.04656    972.08467    43472.134 
      88        0.088    534.83256    972.08467    43412.789 
      89        0.089    535.53383    972.08467    43357.313 
      90         0.09    536.17021    972.08467    43305.322 
      91        0.091    536.76229    972.08467    43255.629 
      92        0.092    537.33121    972.08467    43207.698 
      93        0.093    537.89844    972.08467     43161.41 
      94        0.094    538.48543    972.08467    43116.284 
      95        0.095    539.11324    972.08467    43072.225 
      96        0.096    539.80212    972.08467    43027.003 
      97        0.097    540.57129    972.08467    42979.283 
      98        0.098    541.43868    972.08467    42928.865 
      99        0.099    542.42073    972.08467     42875.35 
     100          0.1    543.53227    972.08467    42817.965 
Loop time of 1.89078 on 1 procs for 90 steps with 64 atoms

Performance: 4.113 ns/day, 5.836 hours/ns, 47.599 timesteps/s
100.0% CPU use with 1 MPI tasks x no OpenMP threads

MPI task timing breakdown:
Section |  min time  |  avg time  |  max time  |%varavg| %total
---------------------------------------------------------------
Pair    | 1.8897     | 1.8897     | 1.8897     |   0.0 | 99.94
Neigh   | 0.00023526 | 0.00023526 | 0.00023526 |   0.0 |  0.01
Comm    | 0.00030105 | 0.00030105 | 0.00030105 |   0.0 |  0.02
Output  | 0.00033874 | 0.00033874 | 0.00033874 |   0.0 |  0.02
Modify  | 0.00016481 | 0.00016481 | 0.00016481 |   0.0 |  0.01
Other   |            | 7.626e-05  |            |       |  0.00

Nlocal:        64.0000 ave          64 max          64 min
Histogram: 1 0 0 0 0 0 0 0 0 0
Nghost:        886.000 ave         886 max         886 min
Histogram: 1 0 0 0 0 0 0 0 0 0
Neighs:         0.00000 ave           0 max           0 min
Histogram: 1 0 0 0 0 0 0 0 0 0
FullNghs:      6094.00 ave        6094 max        6094 min
Histogram: 1 0 0 0 0 0 0 0 0 0

Total # of neighbors = 6094
Ave neighs/atom = 95.218750
Neighbor list builds = 1
Dangerous builds = 0
Setting up Verlet run ...
  Unit style    : metal
  Current step  : 100
  Time step     : 0.001
Per MPI rank memory allocation (min/avg/max) = 3.089 | 3.089 | 3.089 Mbytes
Step Time Temp Volume Press 
     100          0.1    543.53227    972.08467    42817.965 
     110         0.11    563.30537    972.08467    42012.586 
     120         0.12    595.56328    972.08467    40885.473 
     130         0.13    630.52466    972.08467    39725.108 
     140         0.14     665.6606    972.08467    38652.531 
     150         0.15    699.50007    972.08467    37736.028 
     160         0.16    721.47121    972.08467    37258.162 
     170         0.17    718.97132    972.08467     37558.58 
     180         0.18    687.97867    972.08467    38616.116 
     190         0.19    642.70882    972.08467    40074.296 
     200          0.2    612.86747    972.08467     41218.81 
     210         0.21    618.92986    972.08467    41386.804 
     220         0.22    653.82567    972.08467    40616.034 
     230         0.23    696.25944    972.08467    39439.414 
     240         0.24    727.16755    972.08467    38654.627 
     250         0.25    734.35163    972.08467    38715.397 
     260         0.26    719.19909    972.08467    39505.208 
     270         0.27    697.06986    972.08467    40532.351 
     280         0.28    679.91697    972.08467    41447.956 
     290         0.29    667.77887    972.08467    42129.632 
     300          0.3    669.42264    972.08467    42323.983 
     310         0.31    700.82689    972.08467    41724.073 
     320         0.32    749.72471    972.08467    40674.529 
     330         0.33    779.01245    972.08467    40194.573 
     340         0.34     765.2267    972.08467    41019.421 
     350         0.35    716.39677    972.08467    42813.817 
     360         0.36    663.43838    972.08467    44690.002 
     370         0.37    635.42991    972.08467    45720.508 
     380         0.38    639.95494    972.08467    45712.441 
     390         0.39    669.00123    972.08467    44675.965 
     400          0.4    717.89134    972.08467    43013.954 
     410         0.41    769.51603    972.08467    41323.906 
     420         0.42    790.33898    972.08467    40574.479 
     430         0.43    780.35269    972.08467     40873.88 
     440         0.44    763.82989    972.08467    41628.405 
     450         0.45     738.8622    972.08467    42695.467 
     460         0.46    694.72817    972.08467    44154.801 
     470         0.47    647.77082    972.08467    45502.649 
     480         0.48    632.45275    972.08467    45878.188 
     490         0.49    661.01877    972.08467    44968.724 
     500          0.5     708.9611    972.08467    43350.512 
     510         0.51    750.19946    972.08467    41791.242 
     520         0.52     775.2691    972.08467    40598.277 
     530         0.53    782.30361    972.08467    39925.611 
     540         0.54    769.20382    972.08467    39866.437 
     550         0.55    733.72286    972.08467    40487.839 
     560         0.56    682.79462    972.08467    41629.697 
     570         0.57    637.59062    972.08467    42529.344 
     580         0.58    620.77934    972.08467    42462.486 
     590         0.59    637.09177    972.08467     41255.21 
     600          0.6    670.39791    972.08467    39460.534 
     610         0.61    697.81553    972.08467    37921.613 
     620         0.62    704.36298    972.08467    37150.929 
     630         0.63    688.76623    972.08467    37207.329 
     640         0.64    659.92123    972.08467    37870.154 
     650         0.65    628.78279    972.08467    38746.467 
     660         0.66    602.66021    972.08467    39456.993 
     670         0.67    586.35827    972.08467    39875.446 
     680         0.68    580.52581    972.08467    39905.702 
     690         0.69    579.03536    972.08467    39716.388 
     700          0.7    576.39967    972.08467    39516.004 
     710         0.71    574.70603    972.08467    39306.572 
     720         0.72    579.82732    972.08467     38969.54 
     730         0.73    595.74839    972.08467    38375.401 
     740         0.74    624.93398    972.08467     37460.02 
     750         0.75    665.07289    972.08467     36373.04 
     760         0.76    706.08854    972.08467    35365.957 
     770         0.77    736.54814    972.08467    34738.368 
     780         0.78    751.60446    972.08467    34619.537 
     790         0.79    753.48375    972.08467    34981.627 
     800          0.8    744.77115    972.08467    35704.343 
     810         0.81    726.63317    972.08467    36760.479 
     820         0.82    705.93096    972.08467    37916.693 
     830         0.83    697.48743    972.08467    38693.309 
     840         0.84    705.39711    972.08467    39039.297 
     850         0.85    712.94822    972.08467    39451.696 
     860         0.86    699.99191    972.08467    40602.271 
     870         0.87     656.6285    972.08467    42722.479 
     880         0.88    596.34547    972.08467    45265.745 
     890         0.89    560.74179    972.08467     46969.18 
     900          0.9    582.34479    972.08467    46933.593 
     910         0.91    644.81488    972.08467    45595.017 
     920         0.92    705.14608    972.08467    44278.617 
     930         0.93    741.19737    972.08467    43804.681 
     940         0.94    755.39207    972.08467    44310.104 
     950         0.95    747.16683    972.08467    45688.539 
     960         0.96    712.67666    972.08467    47709.313 
     970         0.97    671.06556    972.08467    49621.115 
     980         0.98    661.77574    972.08467    50265.057 
     990         0.99    703.94432    972.08467     49162.92 
    1000            1    776.72695    972.08467    47010.642 
Loop time of 18.6342 on 1 procs for 900 steps with 64 atoms

Performance: 4.173 ns/day, 5.751 hours/ns, 48.298 timesteps/s
100.0% CPU use with 1 MPI tasks x no OpenMP threads

MPI task timing breakdown:
Section |  min time  |  avg time  |  max time  |%varavg| %total
---------------------------------------------------------------
Pair    | 18.625     | 18.625     | 18.625     |   0.0 | 99.95
Neigh   | 0.0037278  | 0.0037278  | 0.0037278  |   0.0 |  0.02
Comm    | 0.0030445  | 0.0030445  | 0.0030445  |   0.0 |  0.02
Output  | 0.00038984 | 0.00038984 | 0.00038984 |   0.0 |  0.00
Modify  | 0.001519   | 0.001519   | 0.001519   |   0.0 |  0.01
Other   |            | 0.0006782  |            |       |  0.00

Nlocal:        64.0000 ave          64 max          64 min
Histogram: 1 0 0 0 0 0 0 0 0 0
Nghost:        886.000 ave         886 max         886 min
Histogram: 1 0 0 0 0 0 0 0 0 0
Neighs:         0.00000 ave           0 max           0 min
Histogram: 1 0 0 0 0 0 0 0 0 0
FullNghs:      6132.00 ave        6132 max        6132 min
Histogram: 1 0 0 0 0 0 0 0 0 0

Total # of neighbors = 6132
Ave neighs/atom = 95.812500
Neighbor list builds = 16
Dangerous builds = 0
Setting up Verlet run ...
  Unit style    : metal
  Current step  : 1000
  Time step     : 0.001
Per MPI rank memory allocation (min/avg/max) = 3.089 | 3.089 | 3.089 Mbytes
Step Time Temp Volume Press 
    1000            1    776.72695    972.08467    47010.642 
    1100          1.1    691.85176    972.08467    48646.643 
    1200          1.2    678.07453    972.08467    43572.208 
    1300          1.3    613.46855    972.08467    40976.871 
    1400          1.4     734.3698    972.08467    36016.098 
    1500          1.5    646.22735    972.08467    39258.287 
    1600          1.6      716.811    972.08467    42103.092 
    1700          1.7    808.25271    972.08467    46696.416 
    1800          1.8    797.84399    972.08467    42807.577 
    1900          1.9    699.65348    972.08467     40317.76 
    2000            2    647.10603    972.08467    38993.629 
    2100          2.1      628.642    972.08467     38342.06 
    2200          2.2    704.87698    972.08467    38226.494 
    2300          2.3    697.38353    972.08467    47025.711 
    2400          2.4    833.66307    972.08467    44409.522 
    2500          2.5    740.79302    972.08467    41889.673 
    2600          2.6    659.94977    972.08467    41646.494 
    2700          2.7    696.77939    972.08467    41382.843 
    2800          2.8    741.10085    972.08467    41962.869 
    2900          2.9    823.58487    972.08467    40671.253 
    3000            3    631.76847    972.08467    41465.086 
    3100          3.1    643.14955    972.08467     36359.57 
    3200          3.2     639.2661    972.08467    35524.937 
    3300          3.3    702.71948    972.08467    39649.147 
    3400          3.4    754.38665    972.08467    44045.472 
    3500          3.5    702.81675    972.08467    44181.791 
    3600          3.6    658.84049    972.08467    43268.349 
    3700          3.7    681.39145    972.08467    33343.817 
    3800          3.8    503.61307    972.08467    36521.578 
    3900          3.9    663.55942    972.08467    33852.813 
    4000            4    613.09963    972.08467    40294.847 
    4100          4.1    717.26711    972.08467    40318.505 
    4200          4.2    615.29226    972.08467    45219.847 
    4300          4.3    855.94023    972.08467    41837.097 
    4400          4.4    690.14346    972.08467    42371.144 
    4500          4.5    579.70857    972.08467    37927.808 
    4600          4.6    621.67795    972.08467    38281.633 
    4700          4.7    684.86756    972.08467    42186.771 
    4800          4.8    738.11192    972.08467    44418.214 
    4900          4.9    784.22857    972.08467    42919.607 
    5000            5    687.06782    972.08467    36245.836 
    5100          5.1    635.63359    972.08467    35694.791 
    5200          5.2    735.72295    972.08467    37454.531 
    5300          5.3    666.89059    972.08467    43098.015 
    5400          5.4    615.70997    972.08467    43539.609 
    5500          5.5    680.01467    972.08467    41558.665 
    5600          5.6    761.92893    972.08467    38712.563 
    5700          5.7    652.04947    972.08467    42341.297 
    5800          5.8    686.26361    972.08467    40337.583 
    5900          5.9    700.59253    972.08467    39708.554 
    6000            6    650.87459    972.08467    41428.972 
    6100          6.1    620.12522    972.08467    40980.872 
    6200          6.2    676.33861    972.08467    41689.752 
    6300          6.3     778.3429    972.08467    44588.212 
    6400          6.4    787.58391    972.08467    43689.201 
    6500          6.5     719.5052    972.08467     38869.12 
    6600          6.6     663.9243    972.08467    35999.197 
    6700          6.7     629.2791    972.08467    36726.881 
    6800          6.8    602.44352    972.08467    43123.017 
    6900          6.9    704.85379    972.08467    42334.067 
    7000            7    693.47594    972.08467    42046.321 
    7100          7.1     713.0035    972.08467    41075.542 
    7200          7.2    699.28162    972.08467    36417.296 
    7300          7.3    626.20076    972.08467     34387.81 
    7400          7.4    699.93643    972.08467    29569.807 
    7500          7.5    599.61095    972.08467    40984.721 
    7600          7.6    628.96554    972.08467    46127.568 
    7700          7.7    788.05661    972.08467    43152.423 
    7800          7.8    711.99418    972.08467    42807.481 
    7900          7.9    747.49596    972.08467    36259.196 
    8000            8    656.61968    972.08467    35417.904 
    8100          8.1    689.15902    972.08467    36714.096 
    8200          8.2    730.01152    972.08467    43285.262 
    8300          8.3    675.08938    972.08467    48089.817 
    8400          8.4    742.06833    972.08467    43193.207 
    8500          8.5    596.11697    972.08467    42618.653 
    8600          8.6    653.65886    972.08467    38270.887 
    8700          8.7    701.27935    972.08467    36921.671 
    8800          8.8    699.16122    972.08467     40866.49 
    8900          8.9    732.07013    972.08467    48833.136 
    9000            9    752.38447    972.08467    45430.901 
    9100          9.1    678.57896    972.08467    42578.696 
    9200          9.2    740.17511    972.08467    36933.437 
    9300          9.3    692.49646    972.08467    38207.313 
    9400          9.4      658.924    972.08467    35850.681 
    9500          9.5    519.37501    972.08467    35759.234 
    9600          9.6    762.75722    972.08467    32254.264 
    9700          9.7    597.77019    972.08467    42941.691 
    9800          9.8    716.93754    972.08467     41783.57 
    9900          9.9    647.27295    972.08467    44998.116 
   10000           10    849.16269    972.08467    43656.477 
Loop time of 196.279 on 1 procs for 9000 steps with 64 atoms

Performance: 3.962 ns/day, 6.058 hours/ns, 45.853 timesteps/s
100.0% CPU use with 1 MPI tasks x no OpenMP threads

MPI task timing breakdown:
Section |  min time  |  avg time  |  max time  |%varavg| %total
---------------------------------------------------------------
Pair    | 196.18     | 196.18     | 196.18     |   0.0 | 99.95
Neigh   | 0.038341   | 0.038341   | 0.038341   |   0.0 |  0.02
Comm    | 0.032806   | 0.032806   | 0.032806   |   0.0 |  0.02
Output  | 0.00051227 | 0.00051227 | 0.00051227 |   0.0 |  0.00
Modify  | 0.015884   | 0.015884   | 0.015884   |   0.0 |  0.01
Other   |            | 0.006875   |            |       |  0.00

Nlocal:        64.0000 ave          64 max          64 min
Histogram: 1 0 0 0 0 0 0 0 0 0
Nghost:        880.000 ave         880 max         880 min
Histogram: 1 0 0 0 0 0 0 0 0 0
Neighs:         0.00000 ave           0 max           0 min
Histogram: 1 0 0 0 0 0 0 0 0 0
FullNghs:      6128.00 ave        6128 max        6128 min
Histogram: 1 0 0 0 0 0 0 0 0 0

Total # of neighbors = 6128
Ave neighs/atom = 95.750000
Neighbor list builds = 159
Dangerous builds = 0
System init for write_data ...
Total wall time: 0:03:37
