LAMMPS data file via write_data, version 29 Sep 2021, timestep = 10000

64 atoms
1 atom types

0 10.600000000000822 xlo xhi
0 9.179869280115762 ylo yhi
0 10.42 zlo zhi
0 0 0 xy xz yz

Masses

1 65.38

Atoms # atomic

1 1 1.1798380091468526 5.309111869518211 3.818464332413289 0 0 0
2 1 1.527168802874832 5.588038547080516 9.321588382103288 0 0 0
3 1 0.09350219399364514 7.5053156800438305 4.481672077081776 0 0 0
4 1 0.005307809762687027 7.731073999974493 9.22463806365609 0 0 0
5 1 6.608439139445637 0.7654423294911372 3.9008132676235476 0 0 0
6 1 6.607251788487911 0.5163205418455316 8.375395432630349 0 0 0
7 1 5.208077772453064 2.8381221511945203 3.3267872730062544 0 0 0
8 1 5.445508220814657 3.4174806380377154 9.214717106997442 0 0 0
9 1 0.9720534759745072 0.6898838335441894 4.015711807424673 0 0 0
10 1 1.2681398108083661 0.8688805125137391 9.3059593608861 0 0 0
11 1 10.30607763342373 2.784101365528581 4.435127086723164 -1 0 0
12 1 10.41364426208606 3.1477981861619457 9.49598133006748 -1 0 0
13 1 3.6416869946516046 0.7468050469822805 4.293314349486845 0 0 0
14 1 3.860942069332406 1.0096548577503965 9.243377150127303 0 0 0
15 1 2.340629045303098 2.9538781126375007 3.8391533205240704 0 0 0
16 1 2.3704569095010144 3.236729944273845 9.295958378318836 0 0 0
17 1 6.50563997087342 5.336987343638486 3.975454666476398 0 0 0
18 1 6.66015486538096 5.634058829992333 8.722552104670866 0 0 0
19 1 5.3769580797089445 7.811136390606407 3.825929496099014 0 0 0
20 1 5.319089893554177 7.9463377011433955 9.773330672649157 0 0 0
21 1 9.175613672264976 5.135779582517739 3.9564641424577562 0 0 0
22 1 9.231820089931906 5.383468494176606 8.973504997235603 0 0 0
23 1 8.007311703700879 7.619593249880178 4.078392216860001 0 0 0
24 1 7.958799711351342 7.801443046688256 9.106147254217303 0 0 0
25 1 3.821570603600593 5.106237983365413 3.364252433552001 0 0 0
26 1 4.060960949186923 5.625414867822154 8.769110929324645 0 0 0
27 1 2.4338046043505033 7.94188967106925 3.4426076602304416 0 0 0
28 1 2.678615741071102 7.957893011087446 8.785306143606755 0 0 0
29 1 9.062122408616672 0.946855730985814 3.403754648429079 0 0 0
30 1 9.24981620367228 0.7005859683736749 8.856656883806656 0 0 0
31 1 7.552013080766546 3.01751539217331 4.203190428509097 0 0 0
32 1 8.00717955011504 3.0336025334963757 9.375281176321304 0 0 0
33 1 5.117387841098076 1.405352674575266 1.0104715340812485 0 0 0
34 1 5.458609172465221 1.5792919446352434 6.297594081922707 0 0 0
35 1 4.047360810476246 3.7131224585998575 1.1807614497823045 0 0 0
36 1 3.8553566676881776 3.68428135151853 6.958327932376962 0 0 0
37 1 3.0059022222442113 6.121164559704957 0.8202084222435833 0 0 0
38 1 2.952689338183633 6.062659817457722 6.089062535475395 0 0 0
39 1 1.2923331415681691 8.13056310535391 1.225630380197693 0 0 0
40 1 1.408779457311304 8.475807763761985 6.6714941324195705 0 0 0
41 1 0.08266929017711401 1.4080519749941973 1.1949592566380285 0 0 0
42 1 0.02643194519813781 1.5889575501299515 6.612766713279504 0 0 0
43 1 2.554889254466065 1.2842747274127408 1.2854352633650237 0 0 0
44 1 2.7627942270531967 1.4652415444306668 6.820285263188048 0 0 0
45 1 1.3576062720888769 3.9992319297293317 1.3381551810810772 0 0 0
46 1 1.2044511642785223 3.9593614916748465 6.6344231799931785 0 0 0
47 1 10.33758046380567 6.3066563733028795 1.7168055250877252 -1 0 0
48 1 0.24539160203206337 6.212539468190874 6.6857155489927145 0 0 0
49 1 9.228742135484783 3.4557704253592334 1.991087974135633 0 0 0
50 1 9.20916429453953 3.6869770558399373 6.783856045251334 0 0 0
51 1 7.978530315266805 5.769438308202966 1.051175351306613 0 0 0
52 1 8.265212524569746 6.09666382299124 6.341258344596001 0 0 0
53 1 6.9298684891128035 8.530354140959018 1.514740986858877 0 0 0
54 1 6.69683040524825 8.147780155996324 6.266946696897743 0 0 0
55 1 9.268822180001651 8.56252009429421 1.0764365404769827 0 0 0
56 1 9.468964202020397 8.448333698089753 6.524925281024985 0 0 0
57 1 7.964036549378698 1.582572308769972 0.9323473473629126 0 0 0
58 1 8.079599675118473 1.5868669594657299 6.191018738895214 0 0 0
59 1 6.954560020842227 3.6296790638352086 1.0244883157624172 0 0 0
60 1 6.603738459801068 3.7836288207714595 6.956904245745901 0 0 0
61 1 5.477684133008409 5.787092508845392 1.405462974638527 0 0 0
62 1 5.4719893298263464 6.191786924108731 6.246925417557628 0 0 0
63 1 4.07646480965035 8.333910594085966 1.5511696269175286 0 0 0
64 1 4.265364539810195 8.658445933022378 6.8385651389277164 0 0 0

Velocities

1 0.12338532457826727 2.4370957914930065 -4.147446074102818
2 -2.1547779879297315 1.8885356352453035 -6.568445329571276
3 0.3560184112076932 -1.4381140839247857 -1.06623546057967
4 -3.014819541725544 1.6354704076607605 2.6855483502277178
5 3.995009984076492 -1.0714241855434528 3.2546750373785636
6 -1.6608135277705904 0.6083324324213485 5.403947122225212
7 -1.4907415748012085 -4.268020346271304 -3.628293987906505
8 0.3931840817415708 3.3061033917416105 -0.23937423908767563
9 -3.0694563656120306 -0.499886022106641 1.088023422442667
10 -3.2314907190396305 -8.176722504992386 -1.2201665275318205
11 -2.6373955856788105 -1.7400055985449938 -6.6171839509562504
12 -4.180386885419777 1.805907975948936 -2.4645594797923502
13 -2.4457805337236533 0.9754886968098432 5.746192441008913
14 1.9629242251205103 -3.563142628188713 -1.3293014516877961
15 -0.6496138869215168 -5.332401431379077 0.3257874451055034
16 -0.20171733544513118 4.898023074199752 0.19198301452053937
17 2.301242799134 -2.1361404615349615 1.3166915683835285
18 0.5320465697117253 0.13349343013663093 7.986532006006491
19 -0.555411352224431 1.49360703476271 -0.3925214488024326
20 5.895693507041313 0.8357909261089989 -5.23331656051802
21 -3.0202099790564114 4.79134404847081 0.678199139526031
22 5.499501677614728 4.890329837138925 -6.588140074100649
23 -0.7880930324593723 0.32931451367347225 -2.456586112255474
24 -0.7444930011943126 1.3329683411009947 -0.3570265837908687
25 -2.870982012442799 6.156286016798975 -4.645469249937393
26 -1.2881264614319332 -1.8586351039424918 -2.980851506251756
27 1.2412743273534887 1.2277801717472758 -2.3972265539497597
28 2.4449250037963433 0.8357733128565881 -0.03281810139743496
29 -3.0342259624166723 -2.6335106358893836 2.976043890194168
30 -0.34759800017590387 -0.8691307782661877 -3.238646663502551
31 1.4232239317698432 -2.5962636732391706 -0.45701909642382743
32 2.027723385664194 -0.9391282903759901 0.3743535303111009
33 -5.311852786924218 -1.8696396134732887 -1.0898270879718541
34 0.5913656124559612 3.6274554708112197 4.891909413157946
35 -2.8983741488510932 -3.3753445325122557 -0.5359657559958357
36 2.252377676730642 2.626026381073653 -0.678191404101261
37 3.3361605762829454 4.6042917360747655 2.711542315473505
38 -1.5293793070739345 0.62858404877986 -0.6249353107484744
39 -1.6571889538164166 1.3630257671471506 1.1423488547423881
40 1.6999563264054645 3.2259076531660558 -2.2276942637841755
41 1.321012095055348 -0.1866444178858867 2.190864566954562
42 1.8261491154592564 -5.03320822441528 -0.1312474036445623
43 2.026101642643222 -1.357142585318391 7.4843979931421085
44 -0.6632967224891747 -0.3632395819879434 1.9222275514941503
45 0.31848672046298276 -0.32657747585999297 1.8257128348282399
46 0.9639742466851982 -0.5851190510811333 3.5969778207453738
47 2.7477751206648393 2.705317359796341 4.536213188273331
48 -2.6273485505216927 1.2494272371402375 -2.903918376190578
49 1.2219905974944596 -0.24973768526285692 0.4476837610198489
50 5.002082772632918 -0.44103365085891183 -0.6606757021545362
51 -1.6345908494143335 2.113974058558895 0.9030386580624318
52 -1.3692429935089878 -0.9098464580590141 -6.207109843333176
53 3.767189539700479 2.0418407698043857 0.40350287236498533
54 2.3305234705377336 -1.6307540637914253 4.466819352702785
55 -0.5199171206621362 5.473002827792894 0.48987702887700263
56 0.5520480586454717 -2.808460754651591 -2.7704601845218826
57 -2.2336733486696883 1.7198903969958343 3.0106260948115215
58 -3.761540467421043 -3.0202491431506666 1.469622010479059
59 -2.556963471850084 -2.0638971446818415 -0.03384477459022738
60 0.041357618526010206 -2.53370737794012 -4.922704860384748
61 -0.19644830891784523 -4.580906045762036 -0.5987176805916081
62 -2.3109274126206008 0.054123473286488546 -0.3365866843113414
63 4.097621902498931 -0.18884338990318913 2.7722325842502955
64 4.36455186651844 -2.3676352779476937 3.4889339157601795
