LAMMPS (29 Sep 2021 - Update 1)
Reading data file ...
  triclinic box = (0.0000000 0.0000000 0.0000000) to (10.520000 9.1105872 10.140000) with tilt (0.0000000 0.0000000 0.0000000)
  1 by 1 by 1 MPI processor grid
  reading atoms ...
  64 atoms
  read_data CPU = 0.001 seconds
Neighbor list info ...
  update every 1 steps, delay 0 steps, check yes
  max neighbors/atom: 2000, page size: 100000
  master list distance cutoff = 7
  ghost atom cutoff = 7
  binsize = 3.5, bins = 4 3 3
  1 neighbor lists, perpetual/occasional/extra = 1 0 0
  (1) pair mlip, perpetual
      attributes: full, newton on
      pair build: full/bin/atomonly
      stencil: full/bin/3d
      bin: standard
Setting up Verlet run ...
  Unit style    : metal
  Current step  : 0
  Time step     : 0.001
Per MPI rank memory allocation (min/avg/max) = 3.089 | 3.089 | 3.089 Mbytes
Step Time Temp Volume Press 
       0            0         1380    971.85185    11427.196 
       1        0.001    1379.0465    971.85185    11459.125 
       2        0.002    1376.1855    971.85185    11554.924 
       3        0.003    1371.4207    971.85185    11712.578 
       4        0.004     1364.766    971.85185    11924.313 
       5        0.005    1356.2443    971.85185    12190.964 
       6        0.006    1345.8861    971.85185    12514.296 
       7        0.007    1333.7297    971.85185    12894.399 
       8        0.008    1319.8213    971.85185    13331.292 
       9        0.009    1304.2158    971.85185    13823.974 
      10         0.01    1286.9767    971.85185    14370.095 
Loop time of 0.211921 on 1 procs for 10 steps with 64 atoms

Performance: 4.077 ns/day, 5.887 hours/ns, 47.187 timesteps/s
96.3% CPU use with 1 MPI tasks x no OpenMP threads

MPI task timing breakdown:
Section |  min time  |  avg time  |  max time  |%varavg| %total
---------------------------------------------------------------
Pair    | 0.21181    | 0.21181    | 0.21181    |   0.0 | 99.95
Neigh   | 0          | 0          | 0          |   0.0 |  0.00
Comm    | 3.5108e-05 | 3.5108e-05 | 3.5108e-05 |   0.0 |  0.02
Output  | 4.084e-05  | 4.084e-05  | 4.084e-05  |   0.0 |  0.02
Modify  | 2.6652e-05 | 2.6652e-05 | 2.6652e-05 |   0.0 |  0.01
Other   |            | 1.226e-05  |            |       |  0.01

Nlocal:        64.0000 ave          64 max          64 min
Histogram: 1 0 0 0 0 0 0 0 0 0
Nghost:        886.000 ave         886 max         886 min
Histogram: 1 0 0 0 0 0 0 0 0 0
Neighs:         0.00000 ave           0 max           0 min
Histogram: 1 0 0 0 0 0 0 0 0 0
FullNghs:      6272.00 ave        6272 max        6272 min
Histogram: 1 0 0 0 0 0 0 0 0 0

Total # of neighbors = 6272
Ave neighs/atom = 98.000000
Neighbor list builds = 0
Dangerous builds = 0
Setting up Verlet run ...
  Unit style    : metal
  Current step  : 10
  Time step     : 0.001
Per MPI rank memory allocation (min/avg/max) = 3.089 | 3.089 | 3.089 Mbytes
Step Time Temp Volume Press 
      10         0.01    1286.9767    971.85185    14370.095 
      11        0.011    1268.1761    971.85185    14968.307 
      12        0.012    1247.8948    971.85185     15616.52 
      13        0.013    1226.2218    971.85185    16312.689 
      14        0.014    1203.2548    971.85185    17053.787 
      15        0.015    1179.0993    971.85185    17836.793 
      16        0.016    1153.8685    971.85185    18658.054 
      17        0.017    1127.6828    971.85185    19514.159 
      18        0.018    1100.6689    971.85185    20399.739 
      19        0.019    1072.9588    971.85185    21309.817 
      20         0.02    1044.6896    971.85185    22240.026 
      21        0.021    1016.0024    971.85185    23185.585 
      22        0.022    987.04201    971.85185    24143.162 
      23        0.023    957.95581    971.85185    25108.569 
      24        0.024    928.89136    971.85185    26074.108 
      25        0.025    899.99537    971.85185    27036.176 
      26        0.026    871.41345    971.85185    27992.393 
      27        0.027    843.28834    971.85185     28937.23 
      28        0.028    815.75822    971.85185    29867.509 
      29        0.029    788.95525    971.85185    30777.253 
      30         0.03    763.00397    971.85185    31662.457 
      31        0.031    738.02016    971.85185    32518.524 
      32        0.032    714.10978    971.85185    33342.796 
      33        0.033     691.3683    971.85185      34134.2 
      34        0.034     669.8793    971.85185    34888.202 
      35        0.035    649.71325    971.85185    35601.942 
      36        0.036    630.92728    971.85185    36274.348 
      37        0.037    613.56498    971.85185    36904.387 
      38        0.038    597.65605    971.85185     37491.25 
      39        0.039     583.2158    971.85185    38031.523 
      40         0.04     570.2455    971.85185    38525.902 
      41        0.041    558.73307    971.85185    38974.818 
      42        0.042    548.65353    971.85185    39379.407 
      43        0.043    539.96972    971.85185    39739.263 
      44        0.044    532.63314    971.85185    40055.779 
      45        0.045    526.58499    971.85185     40331.34 
      46        0.046    521.75727    971.85185    40566.096 
      47        0.047    518.07383    971.85185    40760.984 
      48        0.048    515.45169    971.85185    40918.356 
      49        0.049     513.8026    971.85185    41042.573 
      50         0.05    513.03432    971.85185    41135.465 
      51        0.051    513.05194    971.85185    41199.908 
      52        0.052     513.7593    971.85185    41239.503 
      53        0.053    515.05978    971.85185    41253.811 
      54        0.054     516.8575    971.85185    41245.983 
      55        0.055     519.0587    971.85185    41219.924 
      56        0.056    521.57266    971.85185     41177.85 
      57        0.057    524.31236    971.85185    41122.268 
      58        0.058    527.19527    971.85185    41056.675 
      59        0.059    530.14387    971.85185     40985.37 
      60         0.06    533.08614    971.85185    40909.947 
      61        0.061    535.95589    971.85185    40830.865 
      62        0.062    538.69314    971.85185    40751.162 
      63        0.063    541.24446    971.85185    40672.969 
      64        0.064    543.56292    971.85185    40598.698 
      65        0.065     545.6081    971.85185    40529.869 
      66        0.066    547.34579    971.85185    40467.038 
      67        0.067    548.74788    971.85185    40410.168 
      68        0.068    549.79248    971.85185    40361.481 
      69        0.069     550.4637    971.85185    40322.751 
      70         0.07    550.75143    971.85185    40294.845 
      71        0.071    550.65109    971.85185    40278.167 
      72        0.072    550.16328    971.85185    40271.763 
      73        0.073    549.29338    971.85185    40276.134 
      74        0.074    548.05123    971.85185    40291.232 
      75        0.075    546.45084    971.85185    40316.616 
      76        0.076    544.51018    971.85185    40352.672 
      77        0.077    542.25096    971.85185    40397.893 
      78        0.078    539.69822    971.85185    40452.164 
      79        0.079    536.87969    971.85185     40515.77 
      80         0.08    533.82549    971.85185     40587.02 
      81        0.081    530.56794    971.85185    40665.784 
      82        0.082    527.14134    971.85185    40749.584 
      83        0.083    523.58145    971.85185    40838.043 
      84        0.084    519.92462    971.85185    40930.185 
      85        0.085    516.20751    971.85185    41023.689 
      86        0.086    512.46702    971.85185    41119.552 
      87        0.087    508.74019    971.85185    41215.523 
      88        0.088    505.06358    971.85185    41309.973 
      89        0.089    501.47278    971.85185    41402.733 
      90         0.09    498.00221    971.85185    41493.624 
      91        0.091    494.68502    971.85185    41579.834 
      92        0.092    491.55273    971.85185    41661.812 
      93        0.093    488.63455    971.85185     41739.21 
      94        0.094    485.95735    971.85185    41811.012 
      95        0.095    483.54556    971.85185     41875.87 
      96        0.096    481.42077    971.85185    41932.572 
      97        0.097    479.60169    971.85185     41981.51 
      98        0.098    478.10431    971.85185    42022.389 
      99        0.099    476.94168    971.85185    42053.505 
     100          0.1    476.12379    971.85185    42074.768 
Loop time of 1.87652 on 1 procs for 90 steps with 64 atoms

Performance: 4.144 ns/day, 5.792 hours/ns, 47.961 timesteps/s
100.0% CPU use with 1 MPI tasks x no OpenMP threads

MPI task timing breakdown:
Section |  min time  |  avg time  |  max time  |%varavg| %total
---------------------------------------------------------------
Pair    | 1.8754     | 1.8754     | 1.8754     |   0.0 | 99.94
Neigh   | 0.00020861 | 0.00020861 | 0.00020861 |   0.0 |  0.01
Comm    | 0.00029202 | 0.00029202 | 0.00029202 |   0.0 |  0.02
Output  | 0.00032974 | 0.00032974 | 0.00032974 |   0.0 |  0.02
Modify  | 0.00017175 | 0.00017175 | 0.00017175 |   0.0 |  0.01
Other   |            | 7.704e-05  |            |       |  0.00

Nlocal:        64.0000 ave          64 max          64 min
Histogram: 1 0 0 0 0 0 0 0 0 0
Nghost:        886.000 ave         886 max         886 min
Histogram: 1 0 0 0 0 0 0 0 0 0
Neighs:         0.00000 ave           0 max           0 min
Histogram: 1 0 0 0 0 0 0 0 0 0
FullNghs:      6108.00 ave        6108 max        6108 min
Histogram: 1 0 0 0 0 0 0 0 0 0

Total # of neighbors = 6108
Ave neighs/atom = 95.437500
Neighbor list builds = 1
Dangerous builds = 0
Setting up Verlet run ...
  Unit style    : metal
  Current step  : 100
  Time step     : 0.001
Per MPI rank memory allocation (min/avg/max) = 3.089 | 3.089 | 3.089 Mbytes
Step Time Temp Volume Press 
     100          0.1    476.12379    971.85185    42074.768 
     110         0.11    486.95837    971.85185    41755.234 
     120         0.12    523.18866    971.85185    40657.907 
     130         0.13    562.88534    971.85185    39516.416 
     140         0.14    589.67926    971.85185    38804.335 
     150         0.15    604.36444    971.85185    38495.738 
     160         0.16    618.88843    971.85185    38223.771 
     170         0.17    640.78484    971.85185    37803.407 
     180         0.18     667.8373    971.85185    37350.539 
     190         0.19    689.39778    971.85185    37182.509 
     200          0.2    691.26061    971.85185    37734.173 
     210         0.21    671.04518    971.85185    38983.654 
     220         0.22    644.02437    971.85185    40456.026 
     230         0.23    626.99286    971.85185    41558.636 
     240         0.24    625.34716    971.85185    42066.734 
     250         0.25    639.69415    971.85185    41998.466 
     260         0.26    670.56276    971.85185    41370.358 
     270         0.27    709.15391    971.85185    40520.979 
     280         0.28    739.62889    971.85185    39912.378 
     290         0.29    757.15607    971.85185    39635.266 
     300          0.3    770.11398    971.85185     39436.71 
     310         0.31    778.57765    971.85185    39329.152 
     320         0.32    771.44031    971.85185     39571.67 
     330         0.33    747.93075    971.85185    40233.737 
     340         0.34     721.4497    971.85185    40934.972 
     350         0.35    704.14437    971.85185    41413.999 
     360         0.36    697.99609    971.85185    41591.134 
     370         0.37    697.53815    971.85185    41558.645 
     380         0.38    693.54006    971.85185    41523.793 
     390         0.39    681.68754    971.85185    41606.448 
     400          0.4    672.52675    971.85185    41458.229 
     410         0.41    682.24152    971.85185    40710.883 
     420         0.42     711.6926    971.85185    39349.659 
     430         0.43    743.54302    971.85185    37952.107 
     440         0.44    759.77095    971.85185    37100.258 
     450         0.45    757.23474    971.85185    36985.016 
     460         0.46    743.92027    971.85185    37255.267 
     470         0.47     728.8213    971.85185     37441.96 
     480         0.48     716.4398    971.85185    37408.684 
     490         0.49    705.82389    971.85185    37141.577 
     500          0.5     692.9479    971.85185     36822.54 
     510         0.51    675.97033    971.85185    36587.706 
     520         0.52    657.92915    971.85185    36393.175 
     530         0.53    642.61784    971.85185    36124.035 
     540         0.54    630.63829    971.85185      35704.1 
     550         0.55       619.66    971.85185    35158.933 
     560         0.56    609.67246    971.85185    34571.383 
     570         0.57    605.74425    971.85185    33963.041 
     580         0.58     609.4928    971.85185    33370.925 
     590         0.59    614.01508    971.85185    32911.648 
     600          0.6    610.63251    971.85185    32850.573 
     610         0.61    595.93996    971.85185     33259.83 
     620         0.62    573.05038    971.85185    33998.122 
     630         0.63    549.41695    971.85185    34798.609 
     640         0.64    532.97399    971.85185    35458.516 
     650         0.65    526.48788    971.85185    35868.438 
     660         0.66    524.10941    971.85185    36167.331 
     670         0.67    517.81241    971.85185    36631.003 
     680         0.68    509.86533    971.85185    37217.502 
     690         0.69    514.23024    971.85185    37534.566 
     700          0.7    542.15508    971.85185    37196.772 
     710         0.71    590.45135    971.85185    36215.616 
     720         0.72    644.19721    971.85185    35048.503 
     730         0.73    685.77946    971.85185    34144.172 
     740         0.74    705.07475    971.85185    33928.302 
     750         0.75    705.10502    971.85185     34256.98 
     760         0.76    698.23727    971.85185    34788.832 
     770         0.77     694.8922    971.85185    35300.163 
     780         0.78     695.6066    971.85185    35754.412 
     790         0.79    696.68886    971.85185    36179.203 
     800          0.8    698.17425    971.85185    36576.225 
     810         0.81     700.4894    971.85185    36917.744 
     820         0.82    698.20444    971.85185    37326.464 
     830         0.83    686.62834    971.85185    37906.232 
     840         0.84    670.79109    971.85185    38488.187 
     850         0.85    660.91113    971.85185    38831.261 
     860         0.86    664.44247    971.85185    38740.246 
     870         0.87    679.71093    971.85185    38330.541 
     880         0.88    691.29398    971.85185    38154.592 
     890         0.89    682.73132    971.85185    38543.937 
     900          0.9    657.02736    971.85185    39392.276 
     910         0.91    638.93292    971.85185    40025.364 
     920         0.92    650.67456    971.85185    39813.435 
     930         0.93    687.19482    971.85185    38934.745 
     940         0.94    722.53732    971.85185    38211.611 
     950         0.95    734.20682    971.85185    38380.851 
     960         0.96    717.04844    971.85185    39556.023 
     970         0.97    682.23623    971.85185    41302.749 
     980         0.98    649.88032    971.85185    42901.773 
     990         0.99    642.80691    971.85185    43585.421 
    1000            1    677.79584    971.85185    42824.129 
Loop time of 18.6604 on 1 procs for 900 steps with 64 atoms

Performance: 4.167 ns/day, 5.759 hours/ns, 48.231 timesteps/s
100.0% CPU use with 1 MPI tasks x no OpenMP threads

MPI task timing breakdown:
Section |  min time  |  avg time  |  max time  |%varavg| %total
---------------------------------------------------------------
Pair    | 18.652     | 18.652     | 18.652     |   0.0 | 99.95
Neigh   | 0.0030498  | 0.0030498  | 0.0030498  |   0.0 |  0.02
Comm    | 0.0029579  | 0.0029579  | 0.0029579  |   0.0 |  0.02
Output  | 0.00037587 | 0.00037587 | 0.00037587 |   0.0 |  0.00
Modify  | 0.0016088  | 0.0016088  | 0.0016088  |   0.0 |  0.01
Other   |            | 0.0006976  |            |       |  0.00

Nlocal:        64.0000 ave          64 max          64 min
Histogram: 1 0 0 0 0 0 0 0 0 0
Nghost:        886.000 ave         886 max         886 min
Histogram: 1 0 0 0 0 0 0 0 0 0
Neighs:         0.00000 ave           0 max           0 min
Histogram: 1 0 0 0 0 0 0 0 0 0
FullNghs:      6096.00 ave        6096 max        6096 min
Histogram: 1 0 0 0 0 0 0 0 0 0

Total # of neighbors = 6096
Ave neighs/atom = 95.250000
Neighbor list builds = 15
Dangerous builds = 0
Setting up Verlet run ...
  Unit style    : metal
  Current step  : 1000
  Time step     : 0.001
Per MPI rank memory allocation (min/avg/max) = 3.089 | 3.089 | 3.089 Mbytes
Step Time Temp Volume Press 
    1000            1    677.79584    971.85185    42824.129 
    1100          1.1    811.34247    971.85185    41117.345 
    1200          1.2    689.29476    971.85185    41511.242 
    1300          1.3     684.4887    971.85185    33675.948 
    1400          1.4    677.74751    971.85185    33470.234 
    1500          1.5    692.98551    971.85185    34407.085 
    1600          1.6    764.03285    971.85185    42137.955 
    1700          1.7    703.74301    971.85185    45925.386 
    1800          1.8    725.12215    971.85185    40820.842 
    1900          1.9    669.73372    971.85185    37789.684 
    2000            2    697.46636    971.85185    34725.956 
    2100          2.1    662.30795    971.85185    36457.065 
    2200          2.2    664.76709    971.85185    36791.397 
    2300          2.3    646.86335    971.85185    43579.611 
    2400          2.4    729.38235    971.85185    38563.741 
    2500          2.5    660.65021    971.85185    37988.201 
    2600          2.6    709.75112    971.85185    33907.251 
    2700          2.7    612.07925    971.85185    37532.093 
    2800          2.8    723.83596    971.85185     41087.19 
    2900          2.9    814.20134    971.85185     39843.47 
    3000            3    688.18059    971.85185    40558.187 
    3100          3.1    692.02133    971.85185    34710.785 
    3200          3.2    659.15724    971.85185    31250.333 
    3300          3.3    609.10809    971.85185    33736.358 
    3400          3.4    638.20458    971.85185    35872.575 
    3500          3.5    738.62674    971.85185     36343.76 
    3600          3.6    649.66028    971.85185    43472.539 
    3700          3.7    862.54734    971.85185    38972.413 
    3800          3.8     637.6087    971.85185    40660.217 
    3900          3.9    634.13118    971.85185    34871.038 
    4000            4    613.77436    971.85185     34612.48 
    4100          4.1    566.53235    971.85185    39175.777 
    4200          4.2    718.75251    971.85185     37202.96 
    4300          4.3    713.64033    971.85185    38282.126 
    4400          4.4    668.64795    971.85185    39737.569 
    4500          4.5    579.68641    971.85185    44848.124 
    4600          4.6    836.23668    971.85185    39878.943 
    4700          4.7    678.24579    971.85185    42868.539 
    4800          4.8    682.37115    971.85185    37450.407 
    4900          4.9    645.98947    971.85185    34464.074 
    5000            5     616.6072    971.85185    31102.647 
    5100          5.1    478.80853    971.85185     31218.55 
    5200          5.2    601.89492    971.85185    32424.278 
    5300          5.3    623.54675    971.85185    37866.548 
    5400          5.4    717.14173    971.85185    39772.496 
    5500          5.5    637.06617    971.85185    43843.994 
    5600          5.6    738.62175    971.85185     43868.76 
    5700          5.7    857.21046    971.85185    41014.298 
    5800          5.8    672.73269    971.85185    40851.089 
    5900          5.9    709.22097    971.85185    34283.209 
    6000            6    653.33684    971.85185    38568.257 
    6100          6.1    774.39631    971.85185    41585.771 
    6200          6.2    783.01886    971.85185    41932.618 
    6300          6.3    700.24521    971.85185     40803.41 
    6400          6.4    661.60911    971.85185    39701.569 
    6500          6.5    660.97098    971.85185    39013.331 
    6600          6.6    664.23757    971.85185     41330.23 
    6700          6.7    747.35548    971.85185    39250.355 
    6800          6.8    664.73303    971.85185    45030.889 
    6900          6.9    676.25349    971.85185     41348.03 
    7000            7    727.70977    971.85185    32457.213 
    7100          7.1    644.28785    971.85185    33352.535 
    7200          7.2    682.58927    971.85185    40883.881 
    7300          7.3    795.00541    971.85185    41802.653 
    7400          7.4    684.41551    971.85185    42784.479 
    7500          7.5     736.2253    971.85185    39303.866 
    7600          7.6     683.2937    971.85185    38888.563 
    7700          7.7    601.08839    971.85185    34793.103 
    7800          7.8    547.95158    971.85185    31360.436 
    7900          7.9    541.67436    971.85185    34656.614 
    8000            8    698.97709    971.85185    37028.196 
    8100          8.1    757.67104    971.85185    41101.016 
    8200          8.2    852.45951    971.85185    38264.988 
    8300          8.3    628.50527    971.85185    42104.249 
    8400          8.4    704.91963    971.85185    36018.717 
    8500          8.5    727.01719    971.85185    36742.239 
    8600          8.6    702.27841    971.85185    37959.178 
    8700          8.7    766.37861    971.85185    37020.449 
    8800          8.8    687.45506    971.85185    40264.716 
    8900          8.9    744.15833    971.85185    40824.566 
    9000            9    690.75443    971.85185    43085.735 
    9100          9.1    632.40882    971.85185    41609.065 
    9200          9.2    800.23997    971.85185    33686.038 
    9300          9.3    571.37681    971.85185    38681.815 
    9400          9.4    658.22175    971.85185    33821.351 
    9500          9.5    741.15517    971.85185    35499.992 
    9600          9.6    803.23432    971.85185    41346.238 
    9700          9.7    707.35786    971.85185    43288.167 
    9800          9.8    655.47042    971.85185    42786.033 
    9900          9.9    668.62747    971.85185    40317.083 
   10000           10    546.68246    971.85185    36628.914 
Loop time of 197.493 on 1 procs for 9000 steps with 64 atoms

Performance: 3.937 ns/day, 6.095 hours/ns, 45.571 timesteps/s
100.0% CPU use with 1 MPI tasks x no OpenMP threads

MPI task timing breakdown:
Section |  min time  |  avg time  |  max time  |%varavg| %total
---------------------------------------------------------------
Pair    | 197.4      | 197.4      | 197.4      |   0.0 | 99.95
Neigh   | 0.033774   | 0.033774   | 0.033774   |   0.0 |  0.02
Comm    | 0.031777   | 0.031777   | 0.031777   |   0.0 |  0.02
Output  | 0.00050136 | 0.00050136 | 0.00050136 |   0.0 |  0.00
Modify  | 0.016354   | 0.016354   | 0.016354   |   0.0 |  0.01
Other   |            | 0.007113   |            |       |  0.00

Nlocal:        64.0000 ave          64 max          64 min
Histogram: 1 0 0 0 0 0 0 0 0 0
Nghost:        886.000 ave         886 max         886 min
Histogram: 1 0 0 0 0 0 0 0 0 0
Neighs:         0.00000 ave           0 max           0 min
Histogram: 1 0 0 0 0 0 0 0 0 0
FullNghs:      6072.00 ave        6072 max        6072 min
Histogram: 1 0 0 0 0 0 0 0 0 0

Total # of neighbors = 6072
Ave neighs/atom = 94.875000
Neighbor list builds = 159
Dangerous builds = 0
System init for write_data ...
Total wall time: 0:03:38
