LAMMPS data file via write_data, version 29 Sep 2021, timestep = 10000

64 atoms
1 atom types

0 10.519999999999747 xlo xhi
0 9.110587247812074 ylo yhi
0 10.14 zlo zhi
0 0 0 xy xz yz

Masses

1 65.38

Atoms # atomic

1 1 1.2795760615318252 5.37436771970022 3.7385062390212984 0 0 0
2 1 1.1197181575959911 5.329843618290441 8.515474355682885 0 0 0
3 1 0.08512976302434082 7.550503190270453 3.5258393116913798 0 0 0
4 1 10.468719992545065 7.731772952768468 8.18539238230808 -1 0 0
5 1 6.358785353843383 0.4693541483096301 3.5742710533604902 0 0 0
6 1 6.784119844318068 0.9605252961825298 9.317543601190417 0 0 0
7 1 5.671449270182157 2.88614830235632 3.913889257322389 0 0 0
8 1 5.13709786446405 2.9729647440262417 9.061717100887176 0 0 0
9 1 1.4212738308873327 0.770032466173065 3.7329073254324894 0 0 0
10 1 1.1490379892293625 0.8014530186126897 9.281916330168114 0 0 0
11 1 0.16983252242079666 2.92499184822612 4.032294202425926 0 0 0
12 1 10.310446421791351 2.9611150206736045 8.692868805282442 -1 0 0
13 1 4.034360281109828 0.7108130442076332 4.107284816856974 0 0 0
14 1 3.6725482487164127 0.7971314985766325 8.916875996954747 0 0 0
15 1 2.7373484122240552 3.2256318697401887 4.03587594859032 0 0 0
16 1 2.464314209267192 2.9904176826206315 8.458967062470219 0 0 0
17 1 6.609597520145066 5.337193549444333 3.86487099374126 0 0 0
18 1 6.4192103622885845 5.223991589081688 8.951802039921699 0 0 0
19 1 5.214969721823025 7.4743665479412815 3.88778467184483 0 0 0
20 1 5.184959127072668 7.492229714023196 8.824158265944375 0 0 0
21 1 9.267745795314749 5.4631331988388006 3.8673908868302704 0 0 0
22 1 9.214313598331316 5.134758290362027 9.476048872419828 0 0 0
23 1 8.048674584440636 7.677190096407509 3.8358187230720575 0 0 0
24 1 7.543930946071219 7.408643480433576 8.717925330797065 0 0 0
25 1 3.898652942469765 5.134877992763678 3.8332970260920214 0 0 0
26 1 3.8533472236295996 5.215079720075143 8.55852687687685 0 0 0
27 1 2.725272688730877 7.5998343959852 3.3717561296249925 0 0 0
28 1 2.6108367571828266 7.563133498599659 9.00925234183624 0 0 0
29 1 9.192664308132 0.808127868045411 3.7026115112809035 0 0 0
30 1 9.146797805740482 0.7913231603280994 8.733502244006374 0 0 0
31 1 8.07894331172227 3.0540194367087574 3.787238974309018 0 0 0
32 1 7.841574327810705 3.134540236134675 8.689923317901297 0 0 0
33 1 5.12646998624164 1.5701091284410742 1.609081694985042 0 0 0
34 1 5.3497220908248515 1.4832472016896872 6.381316353776753 0 0 0
35 1 3.8932085868690804 3.6347100379515593 1.6215019165219573 0 0 0
36 1 4.127220751504183 3.8999280096612283 6.170351594952698 0 0 0
37 1 2.329140313426127 5.798383477103796 1.2074378980953346 0 0 0
38 1 2.750578334613686 6.411972242583654 6.188265930277281 0 0 0
39 1 1.5956818016121657 8.358846262391735 1.2004504657510606 0 0 0
40 1 1.3037433040287068 8.545505593258463 6.35543377475141 0 0 0
41 1 10.342493254912416 1.5274602597737454 1.334059222027526 -1 0 0
42 1 10.51435698264672 1.6143280714403623 6.289830417018118 -1 0 0
43 1 2.5787124588251054 1.5044486104049624 1.4300817906855696 0 0 0
44 1 2.597628178971882 1.6577531278427744 6.239243024515423 0 0 0
45 1 1.2528714639599638 3.562397325776731 1.0781647202069582 0 0 0
46 1 1.42592396967351 3.898278151862276 6.398188493684173 0 0 0
47 1 10.480078824229153 6.1866602127767205 1.0872244026129845 -1 0 0
48 1 0.24549764888746597 6.055894751336652 6.26300687559686 0 0 0
49 1 9.21687993727497 3.85079691472465 1.4643970844686975 0 0 0
50 1 9.158671804657793 3.974181313276028 6.092862879686775 0 0 0
51 1 7.76927277468634 6.015921817971254 1.398097202723981 0 0 0
52 1 7.966214201434704 6.07421387546333 6.331883381017848 0 0 0
53 1 6.614991200379429 8.400986209745133 0.9608815465457663 0 0 0
54 1 6.80711119285263 8.23482677480775 6.588751837172193 0 0 0
55 1 9.141375349391947 8.328041000599628 1.439490996623022 0 0 0
56 1 9.404100146102136 8.26671134382265 5.870906333756929 0 0 0
57 1 7.803170233811945 1.616672544292708 1.617341093648567 0 0 0
58 1 8.099001931168782 1.5089609421667707 6.300938053439828 0 0 0
59 1 6.419925650582981 3.919283534192512 1.084335206864804 0 0 0
60 1 6.549076441518625 3.9005253361576395 6.578935780103095 0 0 0
61 1 5.116156240761876 6.050551167029547 1.5479971428289943 0 0 0
62 1 5.428269931866328 6.073227968960833 6.246950261217126 0 0 0
63 1 3.989173200220732 8.254068795471284 1.3927821985446809 0 0 0
64 1 4.0480325679970015 8.390390731105837 6.506278429751326 0 0 0

Velocities

1 -3.7397063134535906 -5.002558070516184 0.8232237972423228
2 1.4409689373473253 -0.251691414476415 1.5693461106648232
3 0.28572268044485666 1.4758486311143162 -4.647873017351436
4 -1.7889276043653797 -0.39417429985218805 0.9283844143309977
5 3.9941893180743135 5.649196048734862 -0.07583351750439878
6 4.0308154413710495 -5.931627384954929 -1.7193378403102346
7 1.309588696459428 -1.750451069999308 0.7392730410146365
8 3.3698127140183574 3.041643141961986 0.13493838837461414
9 4.610078056028744 1.0511315772265446 1.0815288818661826
10 -6.44427210870177 -4.228207644963363 -0.5171733415467866
11 1.1390625362591054 4.029289814870881 0.020888302330386924
12 -1.2274752601625751 -3.9206504428128848 -3.9613653323771287
13 -0.6169715916124804 -2.8700565769164705 -0.17463748891728317
14 -2.553821541850109 2.5699421065416734 -2.1667646206899835
15 0.33690089680453655 0.11208281828471833 -0.6593861184769881
16 -3.86845275215749 -4.158542546457932 1.8119041971772836
17 4.615730155070046 -3.8307482370043098 4.07282879800794
18 -0.50227225461443 -0.9130710868156476 3.321954558462355
19 2.162761786555437 1.7857089691030088 2.146227151682821
20 -3.1033074947883272 3.9698001866826162 -3.345220278649687
21 -0.8737547337200651 1.62520949856617 2.738247694652989
22 1.6589245855611658 2.0734065533579558 1.7618098948850143
23 5.031547239998622 2.383010011317376 -0.3593665694275169
24 -0.09879112607647472 2.2189609365718583 -3.26176271982739
25 -3.5823946268542852 1.0734740210531342 5.542512053165861
26 1.020509841460601 -0.08957321112159433 -4.174770217376087
27 4.549593969002587 -3.2729507383840746 -0.7686027257757209
28 0.598989733114106 -2.984268764014994 -1.8702253664287734
29 2.524086313571549 5.397189850975183 -2.7056211998310253
30 -2.599765913904475 -2.7744215605092557 -1.2172366822614284
31 -3.5168366204383976 1.1459494823393175 -1.7333521506760894
32 1.2690469783118545 2.737666577895916 -1.1172618068822353
33 -0.965422048879709 -1.891175113430603 2.8081490177938715
34 -2.6728506340492353 -4.558762687576745 -2.055568291150637
35 0.20154804921751873 1.1145399649606176 3.4799748157597628
36 1.1171053432578348 -0.6216444013651445 -1.5994368228683156
37 1.953006639988558 0.9436603806811823 -3.0548729791851925
38 0.8235403740811602 -2.6275900257318154 3.386714827619039
39 0.10768045691799472 -1.2499376877692374 -2.127244333405689
40 -1.934537223939105 -1.1035309317643796 0.9490645593141053
41 -0.5778174499116983 -2.0488689471500185 0.386633431128366
42 -1.2672067303530046 3.414046884954239 -0.6021596919548685
43 -2.7492331059032287 2.972768271193662 -3.3492742915777445
44 -1.3189329059052313 -2.848776300224344 -1.4506701766670314
45 2.631927882607065 3.0298064861446328 -0.08189059921489131
46 1.4149274236132312 -1.6066367920432876 1.0901526987012036
47 -5.051914721849941 4.7319793226546425 0.8555324751021722
48 -2.273458683868973 -0.32822865747934693 -0.024498932483952716
49 -0.23244557545037484 -0.3943361716461108 1.2338501381317508
50 2.9102302857924562 -3.6112037129282566 3.8691506739409287
51 1.8226956834471866 1.699483115924182 2.3652806338729615
52 1.4531819874805851 -0.36150662995251454 1.349856394277163
53 -1.9839045804340862 7.267918577657127 -4.495786801016715
54 -1.538555899695392 2.864970713263378 -1.814327156956003
55 2.4612563682942388 1.985430679196543 2.9798313421329237
56 -0.18286245564224168 -1.3355838567943923 1.420417355944745
57 1.6560177697724954 0.364036382060029 -2.308856735977003
58 -4.308299198723381 3.086192651176655 -0.968384552025158
59 -4.826666792700447 0.7251219252055459 4.495456814611322
60 0.6266745798450499 -2.833088554257615 -1.4081211767721313
61 1.4901811614137725 -3.445148383277947 0.7705153772284524
62 -0.6751835149299756 1.4572357889401286 2.1954821851117443
63 0.3435491963277934 -1.146387012885019 0.433190953609325
64 2.1141883834254394 -3.6113024555335005 -0.9454374425727925
