LAMMPS (29 Sep 2021 - Update 1)
Reading data file ...
  triclinic box = (0.0000000 0.0000000 0.0000000) to (10.600000 9.1798693 10.260000) with tilt (0.0000000 0.0000000 0.0000000)
  1 by 1 by 1 MPI processor grid
  reading atoms ...
  64 atoms
  read_data CPU = 0.001 seconds
Neighbor list info ...
  update every 1 steps, delay 0 steps, check yes
  max neighbors/atom: 2000, page size: 100000
  master list distance cutoff = 7
  ghost atom cutoff = 7
  binsize = 3.5, bins = 4 3 3
  1 neighbor lists, perpetual/occasional/extra = 1 0 0
  (1) pair mlip, perpetual
      attributes: full, newton on
      pair build: full/bin/atomonly
      stencil: full/bin/3d
      bin: standard
Setting up Verlet run ...
  Unit style    : metal
  Current step  : 0
  Time step     : 0.001
Per MPI rank memory allocation (min/avg/max) = 3.089 | 3.089 | 3.089 Mbytes
Step Time Temp Volume Press 
       0            0         1380    998.36586   -7883.1405 
       1        0.001    1379.1865    998.36586    -7855.379 
       2        0.002    1376.7454    998.36586   -7772.0254 
       3        0.003    1372.6786    998.36586   -7633.1214 
       4        0.004    1366.9943    998.36586   -7438.8847 
       5        0.005    1359.7065    998.36586   -7190.2436 
       6        0.006    1350.8359    998.36586   -6888.0125 
       7        0.007    1340.4098    998.36586   -6535.0702 
       8        0.008    1328.4628    998.36586   -6134.8666 
       9        0.009    1315.0358    998.36586   -5685.7049 
      10         0.01    1300.1751    998.36586    -5190.402 
Loop time of 0.214612 on 1 procs for 10 steps with 64 atoms

Performance: 4.026 ns/day, 5.961 hours/ns, 46.596 timesteps/s
92.5% CPU use with 1 MPI tasks x no OpenMP threads

MPI task timing breakdown:
Section |  min time  |  avg time  |  max time  |%varavg| %total
---------------------------------------------------------------
Pair    | 0.21449    | 0.21449    | 0.21449    |   0.0 | 99.94
Neigh   | 0          | 0          | 0          |   0.0 |  0.00
Comm    | 3.4236e-05 | 3.4236e-05 | 3.4236e-05 |   0.0 |  0.02
Output  | 4.5489e-05 | 4.5489e-05 | 4.5489e-05 |   0.0 |  0.02
Modify  | 2.9345e-05 | 2.9345e-05 | 2.9345e-05 |   0.0 |  0.01
Other   |            | 1.158e-05  |            |       |  0.01

Nlocal:        64.0000 ave          64 max          64 min
Histogram: 1 0 0 0 0 0 0 0 0 0
Nghost:        886.000 ave         886 max         886 min
Histogram: 1 0 0 0 0 0 0 0 0 0
Neighs:         0.00000 ave           0 max           0 min
Histogram: 1 0 0 0 0 0 0 0 0 0
FullNghs:      5504.00 ave        5504 max        5504 min
Histogram: 1 0 0 0 0 0 0 0 0 0

Total # of neighbors = 5504
Ave neighs/atom = 86.000000
Neighbor list builds = 0
Dangerous builds = 0
Setting up Verlet run ...
  Unit style    : metal
  Current step  : 10
  Time step     : 0.001
Per MPI rank memory allocation (min/avg/max) = 3.089 | 3.089 | 3.089 Mbytes
Step Time Temp Volume Press 
      10         0.01    1300.1751    998.36586    -5190.402 
      11        0.011    1283.9335    998.36586   -4650.7291 
      12        0.012    1266.3698    998.36586   -4067.3464 
      13        0.013    1247.5485    998.36586   -3442.0545 
      14        0.014    1227.5398    998.36586   -2776.3514 
      15        0.015    1206.4194    998.36586   -2071.1443 
      16        0.016    1184.2682    998.36586   -1327.6449 
      17        0.017    1161.1719    998.36586   -549.70633 
      18        0.018    1137.2204    998.36586    257.46427 
      19        0.019    1112.5065    998.36586     1087.086 
      20         0.02    1087.1277    998.36586    1938.3432 
      21        0.021    1061.1861    998.36586    2810.3435 
      22        0.022    1034.7879    998.36586    3701.6245 
      23        0.023    1008.0408    998.36586    4605.0194 
      24        0.024    981.05403    998.36586    5517.9433 
      25        0.025    953.93815    998.36586    6436.5362 
      26        0.026    926.80366    998.36586    7355.9454 
      27        0.027    899.76044    998.36586    8272.0758 
      28        0.028    872.91741    998.36586    9184.2116 
      29        0.029     846.3818    998.36586    10088.667 
      30         0.03    820.25759    998.36586    10982.375 
      31        0.031    794.64481    998.36586    11863.029 
      32        0.032    769.63833    998.36586    12723.611 
      33        0.033    745.32723    998.36586    13563.707 
      34        0.034     721.7948    998.36586    14381.799 
      35        0.035    699.11719    998.36586    15173.482 
      36        0.036    677.36273    998.36586    15936.674 
      37        0.037    656.59187    998.36586    16670.789 
      38        0.038    636.85657    998.36586    17373.054 
      39        0.039    618.20001    998.36586    18042.801 
      40         0.04    600.65651    998.36586    18678.589 
      41        0.041    584.25142    998.36586    19280.106 
      42        0.042    569.00125    998.36586    19846.702 
      43        0.043    554.91369    998.36586    20377.256 
      44        0.044    541.98784    998.36586    20871.608 
      45        0.045    530.21462    998.36586    21329.424 
      46        0.046    519.57724    998.36586     21751.61 
      47        0.047    510.05167    998.36586    22137.581 
      48        0.048    501.60714    998.36586    22488.353 
      49        0.049    494.20676    998.36586    22804.174 
      50         0.05    487.80818    998.36586    23085.594 
      51        0.051    482.36424    998.36586    23332.716 
      52        0.052    477.82379    998.36586    23548.143 
      53        0.053    474.13255    998.36586    23733.539 
      54        0.054    471.23359    998.36586    23890.607 
      55        0.055    469.06805    998.36586    24021.265 
      56        0.056    467.57584    998.36586    24127.529 
      57        0.057    466.69635    998.36586    24210.669 
      58        0.058     466.3688    998.36586    24273.364 
      59        0.059    466.53271    998.36586    24316.675 
      60         0.06    467.12817    998.36586    24341.584 
      61        0.061    468.09631    998.36586    24350.478 
      62        0.062    469.38013    998.36586    24345.487 
      63        0.063    470.92484    998.36586    24328.807 
      64        0.064    472.67796    998.36586    24301.876 
      65        0.065    474.58966    998.36586    24265.512 
      66        0.066    476.61265    998.36586    24223.067 
      67        0.067    478.70241    998.36586    24176.478 
      68        0.068    480.81747    998.36586    24127.104 
      69        0.069    482.91936    998.36586    24075.596 
      70         0.07    484.97271    998.36586    24022.662 
      71        0.071    486.94543    998.36586    23970.403 
      72        0.072    488.80876    998.36586    23920.378 
      73        0.073    490.53742    998.36586    23873.032 
      74        0.074    492.10939    998.36586    23828.864 
      75        0.075    493.50533    998.36586    23784.348 
      76        0.076    494.70925    998.36586    23745.026 
      77        0.077    495.70905    998.36586    23709.784 
      78        0.078    496.49586    998.36586    23678.741 
      79        0.079    497.06431    998.36586    23654.151 
      80         0.08    497.41252    998.36586    23636.399 
      81        0.081     497.5419    998.36586    23625.002 
      82        0.082    497.45717    998.36586    23619.274 
      83        0.083    497.16618    998.36586    23619.944 
      84        0.084     496.6794    998.36586    23624.297 
      85        0.085    496.01009    998.36586    23631.209 
      86        0.086    495.17465    998.36586    23643.024 
      87        0.087    494.19256    998.36586    23657.599 
      88        0.088    493.08569    998.36586    23676.073 
      89        0.089    491.87767    998.36586     23697.73 
      90         0.09    490.59388    998.36586    23721.182 
      91        0.091    489.26126    998.36586    23745.575 
      92        0.092    487.90778    998.36586    23769.828 
      93        0.093    486.56232    998.36586    23794.149 
      94        0.094    485.25449    998.36586    23817.694 
      95        0.095    484.01417    998.36586    23838.971 
      96        0.096    482.87129    998.36586     23857.08 
      97        0.097    481.85523    998.36586    23871.711 
      98        0.098    480.99442    998.36586    23881.152 
      99        0.099    480.31609    998.36586    23885.138 
     100          0.1    479.84566    998.36586    23882.953 
Loop time of 1.84512 on 1 procs for 90 steps with 64 atoms

Performance: 4.214 ns/day, 5.695 hours/ns, 48.777 timesteps/s
100.0% CPU use with 1 MPI tasks x no OpenMP threads

MPI task timing breakdown:
Section |  min time  |  avg time  |  max time  |%varavg| %total
---------------------------------------------------------------
Pair    | 1.844      | 1.844      | 1.844      |   0.0 | 99.94
Neigh   | 0.00019991 | 0.00019991 | 0.00019991 |   0.0 |  0.01
Comm    | 0.00030712 | 0.00030712 | 0.00030712 |   0.0 |  0.02
Output  | 0.00037858 | 0.00037858 | 0.00037858 |   0.0 |  0.02
Modify  | 0.00018254 | 0.00018254 | 0.00018254 |   0.0 |  0.01
Other   |            | 7.778e-05  |            |       |  0.00

Nlocal:        64.0000 ave          64 max          64 min
Histogram: 1 0 0 0 0 0 0 0 0 0
Nghost:        886.000 ave         886 max         886 min
Histogram: 1 0 0 0 0 0 0 0 0 0
Neighs:         0.00000 ave           0 max           0 min
Histogram: 1 0 0 0 0 0 0 0 0 0
FullNghs:      5840.00 ave        5840 max        5840 min
Histogram: 1 0 0 0 0 0 0 0 0 0

Total # of neighbors = 5840
Ave neighs/atom = 91.250000
Neighbor list builds = 1
Dangerous builds = 0
Setting up Verlet run ...
  Unit style    : metal
  Current step  : 100
  Time step     : 0.001
Per MPI rank memory allocation (min/avg/max) = 3.089 | 3.089 | 3.089 Mbytes
Step Time Temp Volume Press 
     100          0.1    479.84566    998.36586    23882.953 
     110         0.11    490.48453    998.36586    23428.621 
     120         0.12    531.05698    998.36586    22092.551 
     130         0.13    587.90538    998.36586    20279.103 
     140         0.14    638.14376    998.36586    18833.128 
     150         0.15    662.13628    998.36586    18413.678 
     160         0.16     656.1453    998.36586    19065.968 
     170         0.17    635.87889    998.36586    20188.914 
     180         0.18     623.8973    998.36586    21029.241 
     190         0.19    631.69111    998.36586    21104.335 
     200          0.2     654.9612    998.36586    20665.472 
     210         0.21    682.00425    998.36586    20147.655 
     220         0.22    697.27765    998.36586    20170.867 
     230         0.23    686.41179    998.36586    21140.199 
     240         0.24    649.92743    998.36586    22930.228 
     250         0.25    608.92015    998.36586    24787.855 
     260         0.26    592.61361    998.36586    25832.471 
     270         0.27    617.22542    998.36586    25489.001 
     280         0.28    672.40753    998.36586    24085.269 
     290         0.29    729.76609    998.36586    22449.105 
     300          0.3    766.36209    998.36586    21390.657 
     310         0.31    777.37948    998.36586    21255.052 
     320         0.32    769.89405    998.36586    21836.654 
     330         0.33    752.64644    998.36586    22834.644 
     340         0.34    731.11838    998.36586    24088.411 
     350         0.35    708.08693    998.36586    25374.451 
     360         0.36    688.92124    998.36586    26420.838 
     370         0.37    684.31101    998.36586    26853.464 
     380         0.38    702.66607    998.36586    26477.767 
     390         0.39    739.89505    998.36586    25407.108 
     400          0.4    780.19775    998.36586    24006.086 
     410         0.41    809.65635    998.36586    22730.415 
     420         0.42    822.23696    998.36586    21948.337 
     430         0.43    813.88914    998.36586    21955.146 
     440         0.44    783.70566    998.36586    22657.707 
     450         0.45    740.93857    998.36586    23661.392 
     460         0.46    703.33318    998.36586    24531.013 
     470         0.47    683.86123    998.36586     24826.59 
     480         0.48    683.05327    998.36586    24421.096 
     490         0.49    692.07172    998.36586     23643.55 
     500          0.5    696.16173    998.36586     22906.32 
     510         0.51     683.7754    998.36586    22492.017 
     520         0.52    659.20372    998.36586     22303.04 
     530         0.53    639.13476    998.36586    21985.438 
     540         0.54    633.56506    998.36586    21228.209 
     550         0.55    638.14578    998.36586    20267.732 
     560         0.56    643.44909    998.36586    19438.818 
     570         0.57    643.74764    998.36586    18810.826 
     580         0.58    639.91655    998.36586    18334.044 
     590         0.59    639.69699    998.36586    17816.365 
     600          0.6    650.38821    998.36586    17090.846 
     610         0.61    668.75071    998.36586    16332.073 
     620         0.62    680.67493    998.36586     15953.71 
     630         0.63    673.34034    998.36586    16275.478 
     640         0.64    649.55996    998.36586    17137.137 
     650         0.65    626.52249    998.36586    18057.828 
     660         0.66    619.43924    998.36586    18560.559 
     670         0.67    628.83517    998.36586     18549.88 
     680         0.68    638.42852    998.36586    18591.758 
     690         0.69    633.46783    998.36586    19056.845 
     700          0.7    623.36107    998.36586    19743.933 
     710         0.71    625.72373    998.36586    19980.416 
     720         0.72    642.22851    998.36586    19800.192 
     730         0.73    663.60866    998.36586    19408.398 
     740         0.74    680.92701    998.36586    19127.902 
     750         0.75    688.60837    998.36586    19133.012 
     760         0.76    682.61567    998.36586    19618.538 
     770         0.77    659.55354    998.36586    20603.768 
     780         0.78    626.01687    998.36586    21819.738 
     790         0.79    603.29157    998.36586    22635.171 
     800          0.8    610.83123    998.36586    22451.134 
     810         0.81    647.53886    998.36586     21394.15 
     820         0.82    693.58384    998.36586    20158.309 
     830         0.83    726.22709    998.36586    19395.148 
     840         0.84    732.37828    998.36586     19546.08 
     850         0.85     712.2018    998.36586    20634.033 
     860         0.86    675.54978    998.36586    22250.035 
     870         0.87    640.32763    998.36586    23727.806 
     880         0.88     628.3427    998.36586    24392.699 
     890         0.89    651.59062    998.36586      24028.1 
     900          0.9    700.73204    998.36586    22960.505 
     910         0.91     749.1766    998.36586    21977.203 
     920         0.92    772.19817    998.36586    21839.138 
     930         0.93    761.92763    998.36586    22734.348 
     940         0.94    726.15483    998.36586     24487.24 
     950         0.95    683.61231    998.36586    26393.308 
     960         0.96    658.26096    998.36586    27663.034 
     970         0.97    664.37637    998.36586    27813.444 
     980         0.98    694.76812    998.36586    27024.553 
     990         0.99    731.29457    998.36586    25854.337 
    1000            1    762.87497    998.36586    24674.476 
Loop time of 18.5886 on 1 procs for 900 steps with 64 atoms

Performance: 4.183 ns/day, 5.737 hours/ns, 48.417 timesteps/s
100.0% CPU use with 1 MPI tasks x no OpenMP threads

MPI task timing breakdown:
Section |  min time  |  avg time  |  max time  |%varavg| %total
---------------------------------------------------------------
Pair    | 18.58      | 18.58      | 18.58      |   0.0 | 99.95
Neigh   | 0.0030561  | 0.0030561  | 0.0030561  |   0.0 |  0.02
Comm    | 0.0029971  | 0.0029971  | 0.0029971  |   0.0 |  0.02
Output  | 0.00040992 | 0.00040992 | 0.00040992 |   0.0 |  0.00
Modify  | 0.0016243  | 0.0016243  | 0.0016243  |   0.0 |  0.01
Other   |            | 0.0006822  |            |       |  0.00

Nlocal:        64.0000 ave          64 max          64 min
Histogram: 1 0 0 0 0 0 0 0 0 0
Nghost:        873.000 ave         873 max         873 min
Histogram: 1 0 0 0 0 0 0 0 0 0
Neighs:         0.00000 ave           0 max           0 min
Histogram: 1 0 0 0 0 0 0 0 0 0
FullNghs:      5828.00 ave        5828 max        5828 min
Histogram: 1 0 0 0 0 0 0 0 0 0

Total # of neighbors = 5828
Ave neighs/atom = 91.062500
Neighbor list builds = 15
Dangerous builds = 0
Setting up Verlet run ...
  Unit style    : metal
  Current step  : 1000
  Time step     : 0.001
Per MPI rank memory allocation (min/avg/max) = 3.089 | 3.089 | 3.089 Mbytes
Step Time Temp Volume Press 
    1000            1    762.87497    998.36586    24674.476 
    1100          1.1     735.0884    998.36586    22339.897 
    1200          1.2    621.02061    998.36586    17616.499 
    1300          1.3    733.89088    998.36586    15785.935 
    1400          1.4    805.04134    998.36586    17323.115 
    1500          1.5    791.04756    998.36586    19023.664 
    1600          1.6    637.93023    998.36586    21123.519 
    1700          1.7    628.90028    998.36586    17235.014 
    1800          1.8    678.09252    998.36586    16149.511 
    1900          1.9    672.71692    998.36586     22158.45 
    2000            2    783.59396    998.36586    21703.583 
    2100          2.1    591.50813    998.36586     30138.96 
    2200          2.2    673.80868    998.36586    28674.646 
    2300          2.3    924.86429    998.36586    28178.785 
    2400          2.4    770.34768    998.36586    25823.769 
    2500          2.5    685.00136    998.36586    22166.945 
    2600          2.6    686.68086    998.36586    21329.972 
    2700          2.7    690.58431    998.36586    21843.053 
    2800          2.8    690.40672    998.36586     20507.96 
    2900          2.9    588.44503    998.36586    21604.073 
    3000            3    705.32245    998.36586    18696.936 
    3100          3.1    671.13348    998.36586    23186.014 
    3200          3.2     707.1519    998.36586    19347.501 
    3300          3.3    663.03368    998.36586     19365.32 
    3400          3.4    709.49911    998.36586     23676.62 
    3500          3.5    746.79279    998.36586    25523.834 
    3600          3.6     701.7096    998.36586     22591.06 
    3700          3.7    572.27184    998.36586    21705.937 
    3800          3.8    669.48572    998.36586    19695.986 
    3900          3.9    744.14217    998.36586    19319.486 
    4000            4    774.55096    998.36586    19993.495 
    4100          4.1    685.52805    998.36586    25947.908 
    4200          4.2    851.91819    998.36586    22910.119 
    4300          4.3    640.37168    998.36586    28894.027 
    4400          4.4    808.95822    998.36586    15075.117 
    4500          4.5    600.11844    998.36586    17773.666 
    4600          4.6    659.68402    998.36586    18843.684 
    4700          4.7    700.91427    998.36586    21721.923 
    4800          4.8     736.7332    998.36586    20583.105 
    4900          4.9    567.02033    998.36586    22551.433 
    5000            5    686.16009    998.36586    14086.405 
    5100          5.1    548.52884    998.36586    13715.156 
    5200          5.2    572.41879    998.36586    15791.878 
    5300          5.3    700.72936    998.36586    16895.529 
    5400          5.4    597.10223    998.36586    26757.028 
    5500          5.5    748.73568    998.36586    23433.353 
    5600          5.6    731.61834    998.36586    20677.459 
    5700          5.7    536.57274    998.36586    23025.405 
    5800          5.8     690.2274    998.36586    16537.953 
    5900          5.9    613.15577    998.36586     21193.99 
    6000            6    880.37893    998.36586    22526.559 
    6100          6.1    801.68461    998.36586     24144.34 
    6200          6.2    777.91148    998.36586    21488.304 
    6300          6.3    722.71863    998.36586    17991.755 
    6400          6.4    615.43856    998.36586    18710.284 
    6500          6.5    673.53822    998.36586    19330.439 
    6600          6.6    827.37761    998.36586    22692.811 
    6700          6.7    733.94614    998.36586    26966.195 
    6800          6.8    710.29053    998.36586     25088.88 
    6900          6.9    724.53395    998.36586    21993.909 
    7000            7    710.35531    998.36586     19819.64 
    7100          7.1    640.84258    998.36586    20359.354 
    7200          7.2     634.6006    998.36586    19612.728 
    7300          7.3    722.08368    998.36586     19252.36 
    7400          7.4    838.77107    998.36586     22089.43 
    7500          7.5    693.86653    998.36586    23567.174 
    7600          7.6     657.4457    998.36586    21621.404 
    7700          7.7    633.83668    998.36586    23985.261 
    7800          7.8    664.81861    998.36586    23305.527 
    7900          7.9    679.54099    998.36586    22144.698 
    8000            8      580.476    998.36586    23313.573 
    8100          8.1    604.04048    998.36586     18023.77 
    8200          8.2    630.61695    998.36586     14845.77 
    8300          8.3     706.0744    998.36586    15964.371 
    8400          8.4    683.01129    998.36586    22571.747 
    8500          8.5    648.02979    998.36586    26186.227 
    8600          8.6    751.05759    998.36586    21830.231 
    8700          8.7    742.40282    998.36586    22704.975 
    8800          8.8    802.60837    998.36586    17197.889 
    8900          8.9    605.41702    998.36586    20559.777 
    9000            9    787.04522    998.36586    15429.736 
    9100          9.1    639.75208    998.36586    24018.888 
    9200          9.2    810.97962    998.36586    24765.916 
    9300          9.3    806.22944    998.36586        24856 
    9400          9.4     675.8145    998.36586    22501.444 
    9500          9.5    691.74603    998.36586    19722.952 
    9600          9.6    636.86101    998.36586    23044.437 
    9700          9.7    720.46984    998.36586    26683.255 
    9800          9.8    816.88429    998.36586    25463.492 
    9900          9.9    697.26275    998.36586    20982.883 
   10000           10    701.98714    998.36586    15074.662 
Loop time of 193.346 on 1 procs for 9000 steps with 64 atoms

Performance: 4.022 ns/day, 5.967 hours/ns, 46.549 timesteps/s
100.0% CPU use with 1 MPI tasks x no OpenMP threads

MPI task timing breakdown:
Section |  min time  |  avg time  |  max time  |%varavg| %total
---------------------------------------------------------------
Pair    | 193.26     | 193.26     | 193.26     |   0.0 | 99.95
Neigh   | 0.034504   | 0.034504   | 0.034504   |   0.0 |  0.02
Comm    | 0.032042   | 0.032042   | 0.032042   |   0.0 |  0.02
Output  | 0.00051911 | 0.00051911 | 0.00051911 |   0.0 |  0.00
Modify  | 0.016725   | 0.016725   | 0.016725   |   0.0 |  0.01
Other   |            | 0.006902   |            |       |  0.00

Nlocal:        64.0000 ave          64 max          64 min
Histogram: 1 0 0 0 0 0 0 0 0 0
Nghost:        886.000 ave         886 max         886 min
Histogram: 1 0 0 0 0 0 0 0 0 0
Neighs:         0.00000 ave           0 max           0 min
Histogram: 1 0 0 0 0 0 0 0 0 0
FullNghs:      5800.00 ave        5800 max        5800 min
Histogram: 1 0 0 0 0 0 0 0 0 0

Total # of neighbors = 5800
Ave neighs/atom = 90.625000
Neighbor list builds = 163
Dangerous builds = 0
System init for write_data ...
Total wall time: 0:03:34
