LAMMPS data file via write_data, version 29 Sep 2021, timestep = 10000

64 atoms
1 atom types

0 10.600000000000822 xlo xhi
0 9.179869280115762 ylo yhi
0 10.26 zlo zhi
0 0 0 xy xz yz

Masses

1 65.38

Atoms # atomic

1 1 1.3153007158153533 5.344553867090539 4.021344452510936 0 0 0
2 1 1.634991386484825 5.288491325095082 8.96346800446624 0 0 0
3 1 0.019432113945987765 7.774629297023492 3.7186498158413146 0 0 0
4 1 0.10274444259423869 7.570996971075374 8.924098362267474 0 0 0
5 1 6.547845434475857 0.7526821189462396 3.4824127540652112 0 0 0
6 1 6.780609526664904 0.7748584103459705 8.981226179729127 0 0 0
7 1 5.062190278789232 2.9281111779553934 4.214929175550581 0 0 0
8 1 5.231875011619081 3.14226258606072 9.059153464836038 0 0 0
9 1 1.378553946520853 0.5963147738756475 3.6779697474531354 0 0 0
10 1 1.343536102231856 0.7156955123647029 8.154700401797351 0 0 0
11 1 0.06922529219821949 3.1729535113103577 3.7602423619197554 0 0 0
12 1 10.577545405339762 3.036081276617562 9.136676920165513 -1 0 0
13 1 4.040881619924635 0.6623384241091365 4.0477587631244205 0 0 0
14 1 3.822777414091893 0.7105738141008195 9.242202304118688 0 0 0
15 1 2.718504715352422 2.9777456495374595 3.4669960297161815 0 0 0
16 1 2.861777566372528 3.1384280293419407 9.033393559640704 0 0 0
17 1 6.602264049546119 5.176783978961644 3.5563986069157014 0 0 0
18 1 6.636627272267508 5.541807989694118 9.001286073769101 0 0 0
19 1 5.235860384180267 7.588138232541653 4.128501131943452 0 0 0
20 1 5.356247506155156 7.680697715847452 9.153219088839357 0 0 0
21 1 9.360058502633231 5.560984019645889 4.251548326967186 0 0 0
22 1 9.398657848596002 5.160820366689138 9.025372685619331 0 0 0
23 1 7.916515622580321 7.578709722816037 3.881672951015006 0 0 0
24 1 7.893743517787453 7.7058852558294575 8.914725698394415 0 0 0
25 1 4.082575387234699 5.216944266884625 3.977122889456544 0 0 0
26 1 4.023931962952797 5.3697263328667715 9.299332954608087 0 0 0
27 1 2.6193845590530227 7.532368052705811 3.7832026328067023 0 0 0
28 1 2.8230685947276375 7.492275132769076 8.900870428704026 0 0 0
29 1 9.157138205478201 0.763479637506384 4.011284859538037 0 0 0
30 1 9.312632845777255 0.725435282864643 8.968824006496556 0 0 0
31 1 8.054022291867652 3.0635393963442334 4.251363377089011 0 0 0
32 1 7.904493888008078 3.0098842288053897 8.733922796494593 0 0 0
33 1 5.293700285026184 1.5193315763821074 1.3616528713718055 0 0 0
34 1 5.150340858895251 1.6205964812089673 6.55897915492012 0 0 0
35 1 4.309350345383359 3.8520734818163596 1.2490551854362575 0 0 0
36 1 3.746885952901698 4.005565449070599 6.554744924595609 0 0 0
37 1 2.7786427575210437 5.842073796809015 1.7118640971770176 0 0 0
38 1 2.3483384794542896 6.320130732591726 6.026953925451445 0 0 0
39 1 1.4789790012674358 8.686742311995785 0.5884945659912224 0 0 0
40 1 1.26136330894587 8.527529453149482 5.939249715623928 0 0 0
41 1 10.366021968027948 1.4343435371148394 1.114455576353377 -1 0 0
42 1 10.32785110097967 1.5229449934573416 6.4668584703872165 -1 0 0
43 1 2.565356660953934 1.663203891709959 1.2581633990132208 0 0 0
44 1 2.6913476950312716 1.6978148075876804 5.9811658545567665 0 0 0
45 1 1.0594924020056786 3.8014329319613016 1.2328710030959953 0 0 0
46 1 1.110746931203214 3.6420267592503515 6.692086176747739 0 0 0
47 1 0.45825226390470924 6.345739807625219 1.2396115794559046 0 0 0
48 1 0.10046931356556428 6.30672884858815 6.580810100981376 0 0 0
49 1 9.16596955603956 3.886198386629204 1.7482131857980268 0 0 0
50 1 9.059165300734927 4.060937808051135 6.532753433360652 0 0 0
51 1 8.32727722917653 6.119742343590564 0.8159918203120062 0 0 0
52 1 7.551241447528562 6.178974598993649 6.364544314666124 0 0 0
53 1 6.950837755747754 8.301603198135755 1.643862614859879 0 0 0
54 1 6.503647405710938 8.622112512879841 6.232856454695559 0 0 0
55 1 9.52085626137806 8.35405821997243 1.3545907552249448 0 0 0
56 1 9.111586041762317 8.298888616338498 6.2220811000753615 0 0 0
57 1 7.994665569044595 1.424242651742228 1.2923392580974256 0 0 0
58 1 7.821266084268993 1.480057637400863 6.462855829500054 0 0 0
59 1 6.943143890461105 3.6035027830806596 0.8723421661726483 0 0 0
60 1 6.432278808066222 3.840479876147537 6.304958007811021 0 0 0
61 1 5.476189657867549 6.068602302967505 1.531919511490596 0 0 0
62 1 5.065774228766836 6.127822725829413 6.5036449032152515 0 0 0
63 1 3.897709749663964 8.246694699469629 1.4421319675595938 0 0 0
64 1 3.846238277471345 8.599423384534846 6.714027270149524 0 0 0

Velocities

1 -1.6885640975506144 1.091944641828772 -6.28113932173223
2 4.695879033698515 -0.2119104001515262 -1.9450940051699577
3 -3.982982874069391 -2.739862325032891 -5.926531840665649
4 2.954258872874319 3.091505105452687 5.004025966903943
5 -1.4256812266097894 2.45525385595628 0.75914339177174
6 2.276154251249508 3.885098235221884 -4.871702338821799
7 0.7296566649619497 1.6367587513302226 0.9179476148782967
8 3.7628427010680743 -0.6686980577317672 1.7842691472860843
9 1.4192424815859699 4.657960921256004 -0.7054295371121775
10 1.265244346737949 1.4635703087642933 6.93106733779146
11 -3.7780717828280124 -3.15652560256354 6.747122093940866
12 -2.365479447913382 2.325610612327088 -3.8079796463237745
13 1.6919939580947478 -3.3885535654361507 3.132444701886693
14 -3.5587031285952526 3.2728231952467826 -0.17533461783970222
15 3.833173979894101 -1.637674863158488 3.107101807050825
16 -4.954896445036714 -4.040558211493745 -2.077386137125457
17 1.4035718000120603 -1.3251981445068595 -1.8709950097656896
18 0.6980751491636471 2.1206627095939234 -0.4079822847552095
19 -0.5425977856382049 1.5229036010689876 -2.830835361208935
20 -0.21759104515298444 -0.8558732333289332 2.9375780626770496
21 2.2080387347312693 1.0385214840481594 -1.2290834326558149
22 2.922705747810793 3.7509975750182964 0.4159398473007566
23 2.430740051082821 -2.929630336114801 -5.413761052805611
24 -0.8163436498724297 -0.8546658699599394 5.65525003905425
25 3.598153470633977 0.7967184717194088 2.7786087973493285
26 -5.932974294348297 -1.0292518072318622 -1.4655273273701408
27 0.15035019619344167 2.5502954548330927 -0.6818923434909986
28 2.238277198498997 1.9511721992031819 0.01353942765607978
29 -2.70519593204724 3.185404582739201 -2.527217479966595
30 -0.3668514378083655 0.18288601634216675 -0.9603032913253801
31 2.974715624868008 -1.0609632069341526 -2.561343841265502
32 -2.5195262637964992 -1.1239608763232258 0.05741352305936854
33 -0.16296135105454432 -4.223640196719927 -2.5041924417622505
34 -3.8887271939089025 3.741484263863502 -0.09655536827204166
35 3.839825498349275 -1.8599034533786125 1.241231584912272
36 -0.2660592117312146 -7.165262506931151 -2.4615441901439508
37 1.2323640568250942 0.43345373136512966 1.7448594391735828
38 -5.2257975079794665 -3.48996379868265 -4.575338677590193
39 1.2217618128591377 -2.6158255801122454 -6.815735794091648
40 -2.9740229002929053 3.398539419665918 -3.2656504988241974
41 -6.874642318486132 6.76637038269217 3.3940390512916605
42 3.681513965895264 1.6276667243374494 2.186578549704681
43 -0.8855207332959341 -1.980682745720351 4.607053769597252
44 1.2851705596693848 -5.046299208176324 -0.3654269944701811
45 4.744128372545671 -3.7210247961666285 -0.19329460621352682
46 -0.9576154025620799 3.7301143857833696 -0.5906490442984493
47 0.06341177643588107 1.9642324197367038 -5.8142407325675505
48 -1.431064138071835 0.08839088444929603 0.7433348572607072
49 4.4072947272611795 0.3980510856354869 0.9292629706302579
50 1.821501163592553 -0.9630635536417775 1.1842024075507434
51 -1.4794872536653647 0.698468369945591 -0.5283228524925246
52 2.6474886133571247 -2.052228575209845 7.899522492829339
53 -1.1807751042448527 -1.5246527415464644 0.016885996176413752
54 -0.1567384442662553 -2.2040638603897524 -3.2332565729905522
55 -4.5997951201912874 -1.9447635492627753 4.573440157683354
56 1.335745245311839 -3.5909212600534857 -0.9961481404654426
57 2.485986836133618 1.3538960915023683 0.7153477148524534
58 -2.52602658329436 -1.288031360956464 3.8226833383043792
59 -0.5728341628498981 1.195839736503281 -0.036334768021224866
60 0.10022666324601168 -2.1109577263167503 3.1452286263975826
61 -1.0528777795868183 2.5111581126200524 3.3838419458820486
62 3.5080843921789655 1.6788890166557051 -0.7036118812007387
63 1.8768645117659712 3.4017388597854086 -0.2873424111510548
64 -6.414037841838063 -3.1637697932583833 -1.6217808168969996
