 # Something
 64 atoms
 1 atom types
 0   10.600000000000822      xlo xhi 
 0   9.1798692801157618      ylo yhi 
 0   10.260000000000000      zlo zhi 
   0.0000000000000000        0.0000000000000000        0.0000000000000000      xy xz yz
 Atoms
 
           1           1   1.3250000000001028        5.3549237467341948        3.8475000000000001     
           2           1   1.3250000000001028        5.3549237467341948        8.9774999999999991     
           3           1   0.0000000000000000        7.6498910667631348        3.8475000000000001     
           4           1   0.0000000000000000        7.6498910667631348        8.9774999999999991     
           5           1   6.6250000000005134       0.76498910667631348        3.8475000000000001     
           6           1   6.6250000000005134       0.76498910667631348        8.9774999999999991     
           7           1   5.3000000000004110        3.0599564267052539        3.8475000000000001     
           8           1   5.3000000000004110        3.0599564267052539        8.9774999999999991     
           9           1   1.3250000000001028       0.76498910667631348        3.8475000000000001     
          10           1   1.3250000000001028       0.76498910667631348        8.9774999999999991     
          11           1   0.0000000000000000        3.0599564267052539        3.8475000000000001     
          12           1   0.0000000000000000        3.0599564267052539        8.9774999999999991     
          13           1   3.9750000000003083       0.76498910667631348        3.8475000000000001     
          14           1   3.9750000000003083       0.76498910667631348        8.9774999999999991     
          15           1   2.6500000000002055        3.0599564267052539        3.8475000000000001     
          16           1   2.6500000000002055        3.0599564267052539        8.9774999999999991     
          17           1   6.6250000000005134        5.3549237467341948        3.8475000000000001     
          18           1   6.6250000000005134        5.3549237467341948        8.9774999999999991     
          19           1   5.3000000000004110        7.6498910667631348        3.8475000000000001     
          20           1   5.3000000000004110        7.6498910667631348        8.9774999999999991     
          21           1   9.2750000000007198        5.3549237467341948        3.8475000000000001     
          22           1   9.2750000000007198        5.3549237467341948        8.9774999999999991     
          23           1   7.9500000000006166        7.6498910667631348        3.8475000000000001     
          24           1   7.9500000000006166        7.6498910667631348        8.9774999999999991     
          25           1   3.9750000000003083        5.3549237467341948        3.8475000000000001     
          26           1   3.9750000000003083        5.3549237467341948        8.9774999999999991     
          27           1   2.6500000000002055        7.6498910667631348        3.8475000000000001     
          28           1   2.6500000000002055        7.6498910667631348        8.9774999999999991     
          29           1   9.2750000000007198       0.76498910667631348        3.8475000000000001     
          30           1   9.2750000000007198       0.76498910667631348        8.9774999999999991     
          31           1   7.9500000000006166        3.0599564267052539        3.8475000000000001     
          32           1   7.9500000000006166        3.0599564267052539        8.9774999999999991     
          33           1   5.3000000000004110        1.5299782133526274        1.2825000000000000     
          34           1   5.3000000000004110        1.5299782133526274        6.4124999999999996     
          35           1   3.9750000000003083        3.8249455333815674        1.2825000000000000     
          36           1   3.9750000000003083        3.8249455333815674        6.4124999999999996     
          37           1   2.6500000000002055        6.1199128534105087        1.2825000000000000     
          38           1   2.6500000000002055        6.1199128534105087        6.4124999999999996     
          39           1   1.3250000000001028        8.4148801734394496        1.2825000000000000     
          40           1   1.3250000000001028        8.4148801734394496        6.4124999999999996     
          41           1   0.0000000000000000        1.5299782133526274        1.2825000000000000     
          42           1   0.0000000000000000        1.5299782133526274        6.4124999999999996     
          43           1   2.6500000000002055        1.5299782133526274        1.2825000000000000     
          44           1   2.6500000000002055        1.5299782133526274        6.4124999999999996     
          45           1   1.3250000000001028        3.8249455333815674        1.2825000000000000     
          46           1   1.3250000000001028        3.8249455333815674        6.4124999999999996     
          47           1   0.0000000000000000        6.1199128534105087        1.2825000000000000     
          48           1   0.0000000000000000        6.1199128534105087        6.4124999999999996     
          49           1   9.2750000000007198        3.8249455333815674        1.2825000000000000     
          50           1   9.2750000000007198        3.8249455333815674        6.4124999999999996     
          51           1   7.9500000000006166        6.1199128534105087        1.2825000000000000     
          52           1   7.9500000000006166        6.1199128534105087        6.4124999999999996     
          53           1   6.6250000000005134        8.4148801734394496        1.2825000000000000     
          54           1   6.6250000000005134        8.4148801734394496        6.4124999999999996     
          55           1   9.2750000000007198        8.4148801734394496        1.2825000000000000     
          56           1   9.2750000000007198        8.4148801734394496        6.4124999999999996     
          57           1   7.9500000000006166        1.5299782133526274        1.2825000000000000     
          58           1   7.9500000000006166        1.5299782133526274        6.4124999999999996     
          59           1   6.6250000000005134        3.8249455333815674        1.2825000000000000     
          60           1   6.6250000000005134        3.8249455333815674        6.4124999999999996     
          61           1   5.3000000000004110        6.1199128534105087        1.2825000000000000     
          62           1   5.3000000000004110        6.1199128534105087        6.4124999999999996     
          63           1   3.9750000000003083        8.4148801734394496        1.2825000000000000     
          64           1   3.9750000000003083        8.4148801734394496        6.4124999999999996     
