LAMMPS (29 Sep 2021 - Update 1)
Lattice spacing in x,y,z = 3.8500000 3.8500000 3.8500000
Created orthogonal box = (0.0000000 0.0000000 0.0000000) to (38.500000 38.500000 38.500000)
  4 by 4 by 8 MPI processor grid
Created 4000 atoms
  using lattice units in orthogonal box = (0.0000000 0.0000000 0.0000000) to (38.500000 38.500000 38.500000)
  create_atoms CPU = 0.001 seconds
Setting atom values ...
  4000 settings made for type
Neighbor list info ...
  update every 1 steps, delay 0 steps, check yes
  max neighbors/atom: 2000, page size: 100000
  master list distance cutoff = 5
  ghost atom cutoff = 5
  binsize = 2.5, bins = 16 16 16
  1 neighbor lists, perpetual/occasional/extra = 1 0 0
  (1) pair mlip, perpetual
      attributes: full, newton on
      pair build: full/bin/atomonly
      stencil: full/bin/3d
      bin: standard
Setting up Verlet run ...
  Unit style    : metal
  Current step  : 0
  Time step     : 0.001
Per MPI rank memory allocation (min/avg/max) = 3.071 | 3.071 | 3.072 Mbytes
Step Time Temp Volume f_3 Press 
       0            0       1478.2    57066.625            0    159402.87 
   10000           10    1507.8654    57066.625   -4.9897318    239202.68 
   20000           20    1457.5247    57066.625   -4.9789997     239580.9 
   30000           30    1461.3629    57066.625   -4.9779358    237644.58 
   40000           40    1515.9637    57066.625   -4.9785265     238033.7 
Loop time of 67.5837 on 128 procs for 40000 steps with 4000 atoms

Performance: 51.137 ns/day, 0.469 hours/ns, 591.859 timesteps/s
100.0% CPU use with 128 MPI tasks x no OpenMP threads

MPI task timing breakdown:
Section |  min time  |  avg time  |  max time  |%varavg| %total
---------------------------------------------------------------
Pair    | 48.813     | 49.963     | 54.674     |   9.5 | 73.93
Neigh   | 0.06427    | 0.067586   | 0.071096   |   0.6 |  0.10
Comm    | 8.9338     | 13.441     | 14.682     |  18.5 | 19.89
Output  | 0.00013957 | 0.00014958 | 0.00016188 |   0.0 |  0.00
Modify  | 3.4765     | 3.8755     | 4.2131     |   9.5 |  5.73
Other   |            | 0.2369     |            |       |  0.35

Nlocal:        31.2500 ave          41 max          25 min
Histogram: 6 24 12 32 15 16 14 3 3 3
Nghost:        362.656 ave         374 max         343 min
Histogram: 1 2 2 4 12 24 36 28 14 5
Neighs:         0.00000 ave           0 max           0 min
Histogram: 128 0 0 0 0 0 0 0 0 0
FullNghs:      1254.00 ave        1658 max         973 min
Histogram: 4 12 25 31 18 11 16 6 2 3

Total # of neighbors = 160512
Ave neighs/atom = 40.128000
Neighbor list builds = 1124
Dangerous builds = 0
Setting up Verlet run ...
  Unit style    : metal
  Current step  : 0
  Time step     : 0.001
Per MPI rank memory allocation (min/avg/max) = 3.446 | 3.446 | 3.447 Mbytes
Step Temp KinEng PotEng TotEng Pxx Pyy Pzz c_va[4] 
       0    1515.9637    783.61878   -19920.999   -19137.381    238514.55    237959.29    237627.24    35.523268 
       1     1514.766    782.99967    -19920.38    -19137.38       238563    238057.97    237649.06    35.490253 
       2    1513.4381    782.31327   -19919.693    -19137.38    238614.38    238162.24    237678.24    35.417732 
       3    1511.9904    781.56493   -19918.944    -19137.38    238669.34    238270.75    237713.28    35.305844 
       4    1510.4347    780.76079    -19918.14   -19137.379    238727.35     238382.8    237755.15      35.1548 
       5    1508.7844    779.90774   -19917.286   -19137.379    238788.29    238498.36    237802.29    34.964885 
       6    1507.0542    779.01339   -19916.392   -19137.378    238853.86    238616.47    237852.55    34.736462 
       7    1505.2596    778.08574   -19915.463   -19137.378    238921.95    238736.18    237907.89    34.469958 
       8    1503.4164    777.13296    -19914.51   -19137.377    238991.49    238858.67    237967.54     34.16587 
       9     1501.541    776.16355    -19913.54   -19137.377     239063.8    238981.62    238030.81    33.824762 
      10    1499.6499    775.18602   -19912.562   -19137.376    239137.17    239103.38    238095.13    33.447262 
      11    1497.7592     774.2087   -19911.584   -19137.375    239211.96    239221.79     238162.3    33.034059 
      12    1495.8845    773.23963   -19910.615   -19137.375    239287.99    239336.75     238233.7    32.585903 
      13    1494.0406    772.28649   -19909.661   -19137.375    239364.57    239447.94    238307.46    32.103599 
      14    1492.2418     771.3567   -19908.731   -19137.374    239440.45    239555.49     238381.9    31.588012 
      15    1490.5021    770.45742   -19907.831   -19137.374    239515.33    239659.31    238456.67    31.040067 
      16    1488.8343    769.59532   -19906.969   -19137.373    239589.16    239757.99    238530.62     30.46074 
      17    1487.2503     768.7765   -19906.149   -19137.373    239659.54    239850.11    238603.69    29.851056 
      18    1485.7601    768.00623   -19905.379   -19137.373    239726.89    239934.11    238676.56    29.212084 
      19    1484.3728    767.28911   -19904.662   -19137.372    239789.52    240010.79    238747.82    28.544932 
      20     1483.096    766.62911   -19904.001   -19137.372    239849.18    240080.43    238817.69    27.850753 
      21    1481.9361    766.02956   -19903.402   -19137.372    239903.64    240143.63     238885.8    27.130733 
      22    1480.8983    765.49311   -19902.865   -19137.372    239953.41    240199.72    238950.04    26.386097 
      23    1479.9867    765.02189   -19902.394   -19137.372    239997.54     240248.9    239010.61      25.6181 
      24    1479.2045    764.61754   -19901.989   -19137.372    240034.96    240288.81    239066.46    24.828027 
      25    1478.5538    764.28119   -19901.653   -19137.372    240066.41     240319.1    239116.92    24.017189 
      26    1478.0359    764.01349   -19901.385   -19137.372    240090.63     240340.5    239161.72    23.186918 
      27    1477.6513    763.81467   -19901.186   -19137.372    240107.48    240353.81    239200.69     22.33857 
      28    1477.3995    763.68454   -19901.056   -19137.372    240117.41    240358.14    239234.86    21.473514 
      29    1477.2796    763.62252   -19900.994   -19137.372     240119.2    240354.89    239262.94    20.593138 
      30    1477.2899    763.62787       -19901   -19137.372    240112.65    240344.87    239283.09    19.698838 
      31    1477.4286    763.69958   -19901.071   -19137.372    240100.27    240327.65    239297.12     18.79202 
      32    1477.6931    763.83627   -19901.208   -19137.372    240081.81     240303.1    239304.17    17.874097 
      33    1478.0801    764.03633   -19901.408   -19137.372    240056.61    240272.51    239305.24    16.946484 
      34     1478.586    764.29785    -19901.67   -19137.372    240025.17     240235.3    239299.42    16.010598 
      35    1479.2063     764.6185   -19901.991   -19137.372    239989.88    240192.58    239288.42    15.067852 
      36    1479.9362    764.99579   -19902.368   -19137.372    239950.38     240143.9    239271.76    14.119659 
      37    1480.7704    765.42696     -19902.8   -19137.373    239907.84    240089.98    239249.61    13.167421 
      38    1481.7024    765.90874   -19903.282   -19137.373    239861.95    240031.94    239220.84    12.212531 
      39    1482.7253     766.4375    -19903.81   -19137.373    239811.39    239971.08    239185.04    11.256368 
      40    1483.8316    767.00935   -19904.383   -19137.373    239757.54    239907.55    239144.39    10.300296 
      41    1485.0128    767.61991   -19904.993   -19137.373    239701.15    239840.97    239099.29     9.345663 
      42    1486.2595    768.26435   -19905.638   -19137.374       239643    239773.78    239050.36    8.3937949 
      43    1487.5615    768.93739   -19906.312   -19137.374    239583.59     239705.1    238996.61    7.4459948 
      44    1488.9079    769.63337   -19907.008   -19137.374    239523.25    239637.09    238938.66    6.5035406 
      45    1490.2872    770.34633   -19907.721   -19137.375    239463.23    239568.65     238877.2    5.5676837 
      46    1491.6871    771.06995   -19908.445   -19137.375    239404.05    239502.08    238814.18    4.6396459 
      47    1493.0947    771.79756   -19909.173   -19137.376    239345.79    239436.56     238750.7    3.7206171 
      48    1494.4965    772.52216   -19909.898   -19137.376     239290.5    239371.21    238686.87    2.8117522 
      49    1495.8787    773.23662   -19910.613   -19137.376    239239.04    239307.81    238621.84    1.9141713 
      50    1497.2272    773.93367   -19911.311   -19137.377    239191.75    239246.33     238557.3    1.0289598 
      51    1498.5281    774.60616   -19911.983   -19137.377    239148.17    239185.79    238493.89   0.15716549 
      52    1499.7679    775.24701   -19912.625   -19137.378    239108.77    239128.65    238432.29  -0.70020417 
      53    1500.9328    775.84913   -19913.227   -19137.378    239075.28    239076.36    238371.67   -1.5421818 
      54    1502.0094    776.40568   -19913.784   -19137.379    239047.11    239029.68    238312.58   -2.3678407 
      55    1502.9852    776.91005   -19914.289   -19137.379    239025.07    238988.49    238256.99   -3.1762965 
      56    1503.8478    777.35595   -19914.735   -19137.379    239009.19    238952.84    238205.42   -3.9667067 
      57    1504.5861    777.73759   -19915.117    -19137.38    238999.27    238921.47    238159.51   -4.7382716 
      58    1505.1899    778.04968    -19915.43    -19137.38    238995.09    238895.87    238117.18   -5.4902383 
      59    1505.6499    778.28748   -19915.668    -19137.38    238998.36    238876.45    238079.36   -6.2218994 
      60    1505.9583     778.4469   -19915.827    -19137.38    239009.08    238863.56    238046.21   -6.9325929 
      61    1506.1085    778.52455   -19915.905   -19137.381    239027.31    238856.34    238018.27   -7.6217024 
      62    1506.0957    778.51789   -19915.899   -19137.381    239053.42    238854.71    237996.96   -8.2886572 
      63    1505.9165    778.42528   -19915.806   -19137.381    239087.68       238861    237981.82   -8.9329319 
      64    1505.5692    778.24578   -19915.627   -19137.381    239129.12    238874.63    237973.16   -9.5540465 
      65    1505.0536    777.97922    -19915.36   -19137.381    239178.27    238895.65    237972.21   -10.151566 
      66    1504.3708    777.62632   -19915.007   -19137.381    239235.63    238923.35    237978.13   -10.725102 
      67    1503.5243    777.18871   -19914.569    -19137.38     239301.2    238957.49    237989.73   -11.274309 
      68    1502.5187    776.66892   -19914.049    -19137.38    239373.28    238997.65    238008.01    -11.79889 
      69    1501.3608     776.0704    -19913.45    -19137.38    239450.79    239043.21    238032.76   -12.298593 
      70    1500.0589    775.39743   -19912.777    -19137.38    239533.64    239094.83    238064.03   -12.773212 
      71    1498.6223    774.65484   -19912.034   -19137.379    239621.81    239151.34    238102.13   -13.222583 
      72    1497.0614      773.848   -19911.227   -19137.379    239714.81    239212.55    238145.97   -13.646582 
      73    1495.3879    772.98291   -19910.362   -19137.379    239813.11    239278.55    238193.56   -14.045129 
      74    1493.6144    772.06618   -19909.444   -19137.378    239914.31    239348.27    238244.51   -14.418189 
      75    1491.7547     771.1049   -19908.483   -19137.378    240016.89    239422.31    238298.87   -14.765768 
      76    1489.8233    770.10652   -19907.484   -19137.377    240121.45    239499.22    238357.21   -15.087915 
      77    1487.8351     769.0788   -19906.456   -19137.377    240228.73    239578.51       238419   -15.384717 
      78    1485.8055    768.02966   -19905.406   -19137.376     240337.9    239659.75    238483.05   -15.656298 
      79      1483.75    766.96715   -19904.343   -19137.376    240448.14    239742.33    238548.67   -15.902826 
      80    1481.6843    765.89941   -19903.275   -19137.375     240558.2    239826.47     238616.5   -16.124506 
      81    1479.6241    764.83446   -19902.209   -19137.375    240667.26    239911.54    238683.41   -16.321577 
      82    1477.5847    763.78025   -19901.155   -19137.375    240775.15    239996.35    238750.99   -16.494316 
      83    1475.5812    762.74463   -19900.119   -19137.374    240880.35    240080.11    238818.24   -16.643033 
      84    1473.6283    761.73515   -19899.109   -19137.374    240981.52     240161.6    238883.13   -16.768072 
      85    1471.7402    760.75918   -19898.132   -19137.373    241076.95    240240.57    238945.97   -16.869809 
      86    1469.9306    759.82377   -19897.197   -19137.373    241167.42    240316.22    239006.65   -16.948657 
      87    1468.2122    758.93552   -19896.308   -19137.373    241251.55     240388.2    239064.38   -17.005053 
      88    1466.5971    758.10064   -19895.473   -19137.372    241330.07    240456.26    239120.05   -17.039471 
      89    1465.0963    757.32485   -19894.697   -19137.372    241403.66    240520.07    239173.83   -17.052406 
      90    1463.7198    756.61333   -19893.985   -19137.372    241470.61     240578.3    239224.75   -17.044382 
      91    1462.4766     755.9707   -19893.342   -19137.371    241529.23    240631.84    239272.25   -17.015947 
      92    1461.3745    755.40104   -19892.772   -19137.371    241579.89    240680.01    239315.31   -16.967676 
      93    1460.4204    754.90783   -19892.279   -19137.371    241623.97    240721.36     239355.3   -16.900165 
      94    1459.6193    754.49372   -19891.865   -19137.371     241658.3    240755.39    239390.91   -16.814033 
      95    1458.9748     754.1606   -19891.531   -19137.371    241683.68    240783.13     239423.2   -16.709917 
      96    1458.4893    753.90963    -19891.28   -19137.371    241700.98    240804.43    239451.04   -16.588471 
      97    1458.1633     753.7411   -19891.112   -19137.371    241712.02    240819.37    239473.66   -16.450361 
      98    1457.9957    753.65449   -19891.025   -19137.371    241716.51    240827.55    239490.76   -16.296269 
      99    1457.9845    753.64869    -19891.02   -19137.371     241714.8    240829.36    239503.44   -16.126889 
     100     1458.126    753.72182   -19891.093   -19137.371    241705.85    240823.24     239512.7   -15.942926 
     101     1458.415    753.87125   -19891.243   -19137.371    241689.83    240811.43    239516.18   -15.745096 
     102    1458.8451    754.09355   -19891.465   -19137.372    241668.29     240793.1    239515.52   -15.534122 
     103    1459.4083    754.38466   -19891.757   -19137.372    241639.54    240769.62    239509.98   -15.310732 
     104    1460.0956    754.73993   -19892.112   -19137.372    241605.66    240741.65    239499.48    -15.07566 
     105    1460.8967    755.15403   -19892.527   -19137.373    241566.58    240710.46    239484.03   -14.829641 
     106    1461.8003    755.62112   -19892.994   -19137.373    241521.58       240675    239465.53   -14.573411 
     107    1462.7944    756.13498   -19893.509   -19137.374    241471.56    240635.46    239442.67   -14.307709 
     108    1463.8665    756.68918   -19894.063   -19137.374    241418.46    240592.97    239416.76   -14.033277 
     109    1465.0036    757.27692   -19894.651   -19137.374    241362.16    240547.91    239387.83   -13.750852 
     110    1466.1919     757.8912   -19895.266   -19137.375    241304.15    240499.33    239357.58   -13.461171 
     111    1467.4183    758.52515     -19895.9   -19137.375    241242.78    240449.03    239324.75   -13.164962 
     112    1468.6698    759.17204   -19896.548   -19137.376     241178.6    240398.35    239290.51   -12.862951 
     113    1469.9333    759.82519   -19897.201   -19137.376    241113.83    240347.15     239254.9   -12.555854 
     114    1471.1965    760.47813   -19897.855   -19137.376    241047.06    240296.17    239218.22   -12.244379 
     115    1472.4478    761.12492   -19898.502   -19137.377     240979.9    240245.39       239181   -11.929229 
     116    1473.6765    761.76006   -19899.137   -19137.377    240912.14    240195.41    239142.36   -11.611094 
     117    1474.8731    762.37858   -19899.756   -19137.377    240845.45    240146.23    239103.96   -11.290652 
     118    1476.0293    762.97625   -19900.354   -19137.378     240778.1    240097.14    239066.25   -10.968573 
     119    1477.1384    763.54954   -19900.927   -19137.378    240711.21     240047.3    239028.88   -10.645513 
     120    1478.1947    764.09555   -19901.473   -19137.378    240646.12    239997.59     238991.2   -10.322115 
     121    1479.1939    764.61209    -19901.99   -19137.378    240583.42    239948.56     238954.6   -9.9990085 
     122    1480.1334    765.09769   -19902.476   -19137.378    240523.59    239901.82    238919.53   -9.6768051 
     123    1481.0114    765.55153    -19902.93   -19137.378    240466.68    239855.88    238886.02   -9.3561018 
     124    1481.8277    765.97352   -19903.351   -19137.378    240412.71    239811.23    238855.12   -9.0374795 
     125    1482.5835    766.36421   -19903.742   -19137.378     240361.3    239768.44    238826.96   -8.7215041 
     126     1483.281    766.72474   -19904.102   -19137.378     240312.6    239728.36    238800.82   -8.4087248 
     127    1483.9229    767.05656   -19904.434   -19137.378     240267.2    239689.88    238776.18   -8.0996734 
     128    1484.5128    767.36147   -19904.739   -19137.377    240225.39    239651.28    238754.03   -7.7948637 
     129    1485.0547    767.64158   -19905.019   -19137.377    240186.45     239612.2    238734.62   -7.4947873 
     130     1485.553    767.89915   -19905.276   -19137.377    240149.77    239574.71    238717.76    -7.199916 
     131    1486.0123    768.13658   -19905.513   -19137.377    240114.83    239539.83    238703.22   -6.9107023 
     132    1486.4375    768.35636   -19905.733   -19137.377    240081.86    239505.85    238691.44   -6.6275786 
     133    1486.8329    768.56078   -19905.937   -19137.377    240052.06    239472.79    238682.24   -6.3509551 
     134    1487.2027    768.75192   -19906.128   -19137.376    240024.72    239440.69     238675.5   -6.0812183 
     135    1487.5506    768.93174   -19906.308   -19137.376    239999.49     239408.8    238670.07   -5.8187311 
     136      1487.88    769.10202   -19906.478   -19137.376    239977.28    239376.45    238664.89    -5.563833 
     137     1488.194    769.26433   -19906.641   -19137.376     239958.2    239345.63    238662.01   -5.3168396 
     138    1488.4946    769.41969   -19906.796   -19137.376    239941.72    239315.85    238662.23   -5.0780421 
     139    1488.7825    769.56855   -19906.945   -19137.376    239925.93    239287.54    238665.45   -4.8477081 
     140    1489.0583     769.7111   -19907.087   -19137.376    239911.62    239260.45    238669.36   -4.6260818 
     141    1489.3216     769.8472   -19907.223   -19137.376    239899.29    239235.63    238673.86   -4.4133833 
     142    1489.5714    769.97633   -19907.353   -19137.376    239888.06    239211.75    238680.52   -4.2098079 
     143    1489.8063    770.09774   -19907.474   -19137.376    239874.77    239188.78    238690.05   -4.0155272 
     144    1490.0242    770.21037   -19907.587   -19137.376    239861.58    239167.41    238699.26   -3.8306891 
     145    1490.2226    770.31295    -19907.69   -19137.377    239850.51    239148.64    238708.42   -3.6554159 
     146     1490.399     770.4041   -19907.781   -19137.377    239839.72    239131.71    238717.12   -3.4898033 
     147    1490.5504    770.48236   -19907.859   -19137.377       239830    239117.23    238726.24   -3.3339217 
     148    1490.6744    770.54649   -19907.923   -19137.377    239821.68    239103.87    238735.17   -3.1878195 
     149    1490.7691    770.59542   -19907.972   -19137.377    239814.74    239091.74    238742.42   -3.0515211 
     150    1490.8329    770.62841   -19908.005   -19137.377    239809.53    239081.64    238748.55   -2.9250246 
     151    1490.8653    770.64513   -19908.022   -19137.377    239805.58     239073.3    238755.07   -2.8083039 
     152    1490.8662     770.6456   -19908.023   -19137.377    239801.91    239066.19    238761.44   -2.7013086 
     153    1490.8366    770.63029   -19908.007   -19137.377     239798.7    239060.84    238767.83   -2.6039659 
     154    1490.7786    770.60032   -19907.977   -19137.377    239796.39    239058.14    238773.97   -2.5161808 
     155    1490.6953     770.5573   -19907.934   -19137.377     239793.8    239057.03    238778.95    -2.437836 
     156    1490.5907    770.50319    -19907.88   -19137.377    239792.18    239056.86    238783.47   -2.3687923 
     157    1490.4692     770.4404   -19907.817   -19137.377    239790.49    239057.87    238787.43   -2.3088893 
     158    1490.3363    770.37169   -19907.748   -19137.376    239790.04    239059.12    238789.31   -2.2579464 
     159    1490.1978    770.30011   -19907.676   -19137.376    239788.37    239060.52    238788.18   -2.2157636 
     160      1490.06    770.22886   -19907.605   -19137.376    239785.91    239063.63    238784.69   -2.1821203 
     161    1489.9292    770.16125   -19907.537   -19137.376    239785.05     239066.6    238778.35   -2.1567769 
     162    1489.8121    770.10075   -19907.476   -19137.376    239784.52    239069.92     238769.2   -2.1394763 
     163    1489.7158    770.05095   -19907.426   -19137.375    239784.44    239073.75    238758.09   -2.1299434 
     164    1489.6468    770.01527   -19907.391   -19137.375    239784.28    239078.03    238744.57   -2.1278852 
     165    1489.6114    769.99697   -19907.372   -19137.375    239782.91    239082.12    238729.57   -2.1329913 
     166    1489.6152    769.99895   -19907.374   -19137.375       239782    239085.66    238713.72    -2.144935 
     167    1489.6629    770.02361   -19907.398   -19137.375    239781.51    239088.52    238696.98   -2.1633759 
     168    1489.7582    770.07287   -19907.448   -19137.375    239780.41    239090.88    238678.17   -2.1879588 
     169    1489.9037    770.14811   -19907.523   -19137.375    239777.47    239091.91    238657.42   -2.2183147 
     170    1490.1012    770.25017   -19907.625   -19137.375    239774.92    239092.15    238634.71    -2.254062 
     171     1490.351    770.37929   -19907.754   -19137.375    239772.41    239090.04    238610.13   -2.2948064 
     172    1490.6524    770.53509    -19907.91   -19137.375    239768.32     239086.1    238583.56   -2.3401428 
     173    1491.0036    770.71665   -19908.092   -19137.375    239762.76    239080.17    238555.92   -2.3896573 
     174    1491.4019    770.92255   -19908.298   -19137.375    239756.12    239072.02    238526.82   -2.4429273 
     175    1491.8437    771.15092   -19908.526   -19137.375    239748.89    239063.93    238495.55   -2.4995227 
     176    1492.3244    771.39939   -19908.775   -19137.375    239740.27    239056.08     238462.5   -2.5590084 
     177    1492.8386    771.66519   -19909.041   -19137.376    239729.65    239047.71    238427.13   -2.6209445 
     178    1493.3804    771.94521   -19909.321   -19137.376    239718.73    239037.27    238390.93    -2.684886 
     179    1493.9433    772.23621   -19909.612   -19137.376    239706.97    239026.02     238355.4   -2.7503849 
     180    1494.5209     772.5348   -19909.911   -19137.376    239693.83    239015.13     238319.4   -2.8169922 
     181    1495.1066    772.83755   -19910.214   -19137.377     239680.1    239004.29    238282.48   -2.8842602 
     182    1495.6938    773.14105   -19910.518   -19137.377    239664.59    238993.79    238245.25   -2.9517438 
     183     1496.276      773.442   -19910.819   -19137.377    239648.54    238984.19    238206.97    -3.019001 
     184    1496.8473    773.73733   -19911.115   -19137.377    239632.29    238974.45    238168.82   -3.0855943 
     185    1497.4022    774.02415   -19911.402   -19137.377    239615.45    238965.53    238132.28   -3.1510911 
     186    1497.9353    774.29972   -19911.677   -19137.378    239598.73    238957.22    238097.15   -3.2150645 
     187    1498.4418    774.56154   -19911.939   -19137.378    239581.36     238952.1    238063.68   -3.2770959 
     188    1498.9173    774.80731   -19912.185   -19137.378    239563.07    238949.29    238033.15   -3.3367759 
     189    1499.3577    775.03498   -19912.413   -19137.378    239543.88    238948.15    238003.65   -3.3937055 
     190    1499.7599    775.24287   -19912.621   -19137.378    239525.37    238949.33    237976.65   -3.4474978 
     191    1500.1211    775.42957   -19912.808   -19137.378    239506.44    238952.33    237952.12   -3.4977794 
     192    1500.4391    775.59395   -19912.972   -19137.378    239486.09    238958.15    237930.28   -3.5441925 
     193    1500.7123    775.73516   -19913.113   -19137.378    239465.96    238966.15    237912.78   -3.5863956 
     194    1500.9395     775.8526   -19913.231   -19137.378    239446.44    238976.82     237899.4   -3.6240619 
     195      1501.12     775.9459   -19913.324   -19137.378    239428.08    238990.72    237891.29   -3.6568801 
     196    1501.2535    776.01491   -19913.393   -19137.378    239410.44    239007.54    237888.25   -3.6845562 
     197      1501.34    776.05967   -19913.438   -19137.378    239393.78    239027.65    237889.93   -3.7068137 
     198    1501.3801    776.08036   -19913.458   -19137.378    239377.33    239052.62    237897.04   -3.7233916 
     199    1501.3741    776.07727   -19913.455   -19137.378    239361.74    239080.77    237906.23   -3.7340484 
     200    1501.3232    776.05098   -19913.429   -19137.378    239347.77    239112.16     237917.4    -3.738562 
     201    1501.2289    776.00219    -19913.38   -19137.378    239334.32    239147.18    237931.95   -3.7367279 
     202    1501.0923    775.93158   -19913.309   -19137.378    239321.07    239185.46     237950.8   -3.7283607 
     203    1500.9149    775.83992   -19913.218   -19137.378    239307.87     239225.8    237974.92   -3.7132949 
     204    1500.6987    775.72812   -19913.106   -19137.378    239295.66    239268.08    238002.58    -3.691385 
     205    1500.4454     775.5972   -19912.975   -19137.377    239283.86    239311.64    238033.67   -3.6625064 
     206    1500.1573    775.44826   -19912.826   -19137.377    239272.66    239357.81    238067.34   -3.6265542 
     207    1499.8367    775.28256    -19912.66   -19137.377    239261.71    239405.98    238102.52   -3.5834428 
     208    1499.4863    775.10145   -19912.479   -19137.377    239252.64    239454.16     238139.3   -3.5331077 
     209     1499.109     774.9064   -19912.283   -19137.377    239245.52    239502.06    238176.91   -3.4755052 
     210    1498.7077    774.69896   -19912.076   -19137.377     239239.8    239550.14    238216.23   -3.4106108 
     211    1498.2857    774.48085   -19911.858   -19137.377     239235.8    239596.32    238256.28   -3.3384207 
     212    1497.8466    774.25386   -19911.631   -19137.377    239233.74    239642.03    238296.72   -3.2589511 
     213    1497.3938     774.0198   -19911.396   -19137.377     239233.6    239686.57    238337.25   -3.1722383 
     214    1496.9312    773.78069   -19911.157   -19137.376    239235.07    239728.38    238378.59   -3.0783385 
     215    1496.4629    773.53861   -19910.915   -19137.376    239237.23    239767.17    238418.88   -2.9773276 
     216     1495.993    773.29573   -19910.672   -19137.376    239239.78    239803.69    238456.96   -2.8693013 
     217     1495.526    773.05432    -19910.43   -19137.376    239243.01    239837.49    238493.44   -2.7543741 
     218    1495.0664    772.81675   -19910.193   -19137.376    239247.47    239868.04    238528.93   -2.6326798 
     219    1494.6191    772.58551   -19909.961   -19137.376    239252.03    239894.49    238563.25   -2.5043689 
     220    1494.1889    772.36314   -19909.739   -19137.376    239257.54       239917    238594.89    -2.369607 
     221    1493.7807    772.15215   -19909.527   -19137.375    239262.15    239935.62     238625.2   -2.2285776 
     222    1493.3994    771.95505    -19909.33   -19137.375    239266.03    239949.66    238654.09   -2.0814816 
     223    1493.0495    771.77419   -19909.149   -19137.375    239269.05    239957.76    238681.42   -1.9285343 
     224    1492.7354    771.61181   -19908.987   -19137.375    239270.74    239959.97    238707.73   -1.7699658 
     225     1492.461    771.47001   -19908.845   -19137.375    239272.01    239956.72    238731.68   -1.6060199 
     226    1492.2302    771.35069   -19908.725   -19137.375    239272.29    239947.77    238752.22   -1.4369541 
     227     1492.046    771.25547    -19908.63   -19137.375    239271.04    239935.85    238769.49   -1.2630396 
     228     1491.911    771.18567    -19908.56   -19137.375    239268.89    239920.82    238782.92   -1.0845599 
     229    1491.8269    771.14223   -19908.517   -19137.375    239265.46    239902.92    238792.35  -0.90180881 
     230     1491.795    771.12571     -19908.5   -19137.375    239259.67    239882.09    238799.11  -0.71508995 
     231    1491.8154    771.13625   -19908.511   -19137.375    239253.28    239858.23    238803.38  -0.52471848 
     232    1491.8872    771.17337   -19908.548   -19137.375    239246.61    239831.42    238803.92  -0.33102029 
     233    1492.0081    771.23588   -19908.611   -19137.375    239239.61    239802.18    238801.38  -0.13433072 
     234    1492.1748    771.32205   -19908.697   -19137.375    239231.97    239772.07    238794.33  0.065008604 
     235    1492.3831    771.42972   -19908.805   -19137.375    239224.59    239740.22    238785.26    0.2666497 
     236    1492.6278    771.55619   -19908.932   -19137.375    239217.62    239706.92    238774.73   0.47023665 
     237    1492.9024    771.69815   -19909.074   -19137.376    239209.57    239673.55     238762.3   0.67540783 
     238    1493.1996    771.85175   -19909.228   -19137.376    239200.49    239640.11    238747.22    0.8817954 
     239     1493.511    772.01275   -19909.389   -19137.376    239192.44    239606.93    238729.76    1.0890269 
     240    1493.8279    772.17655   -19909.553   -19137.377       239185    239574.48    238709.68    1.2967279 
     241     1494.141    772.33837   -19909.715   -19137.377    239179.75    239543.25    238688.16    1.5045212 
     242    1494.4408    772.49334   -19909.871   -19137.377    239176.66    239513.81    238668.29    1.7120271 
     243    1494.7178    772.63653   -19910.014   -19137.378    239174.34    239487.12    238647.69    1.9188645 
     244    1494.9623    772.76292   -19910.141   -19137.378    239172.69    239464.38    238626.86    2.1246507 
     245     1495.165     772.8677   -19910.246   -19137.378    239172.81    239444.32     238606.7    2.3290024 
     246    1495.3174    772.94647   -19910.325   -19137.379    239174.99    239427.76    238585.49    2.5315376 
     247    1495.4118    772.99528   -19910.374   -19137.379    239180.44    239414.89    238564.06    2.7318791 
     248    1495.4414    773.01059    -19910.39   -19137.379    239189.45    239405.77    238545.09    2.9296537 
     249    1495.4003    772.98934   -19910.369   -19137.379    239201.29    239401.29    238528.66    3.1244905 
     250    1495.2834    772.92893   -19910.308   -19137.379    239214.74    239400.77    238515.18    3.3160226 
     251    1495.0871    772.82744   -19910.207   -19137.379    239229.41    239403.74    238503.31    3.5038877 
     252    1494.8092    772.68379   -19910.063   -19137.379     239247.2    239410.12    238493.19    3.6877301 
     253    1494.4493    772.49776   -19909.877   -19137.379    239268.14    239420.17    238484.95    3.8672005 
     254    1494.0085     772.2699   -19909.649   -19137.379    239290.24    239432.63    238478.84    4.0419572 
     255    1493.4895    772.00162   -19909.381   -19137.379    239314.38    239446.62    238476.01    4.2116691 
     256    1492.8966    771.69516   -19909.074   -19137.379    239340.75    239462.85    238475.96    4.3760132 
     257    1492.2357    771.35352   -19908.732   -19137.379    239368.88    239479.92     238478.1    4.5346746 
     258    1491.5139    770.98043   -19908.359   -19137.379    239398.63    239498.68    238483.07     4.687348 
     259    1490.7398    770.58027   -19907.959   -19137.378    239428.81    239519.36    238490.65     4.833739 
     260    1489.9228    770.15798   -19907.536   -19137.378    239457.48    239540.35    238501.48    4.9735662 
     261     1489.074    769.71918   -19907.097   -19137.378    239486.62     239561.6    238514.22    5.1065597 
     262     1488.205    769.27003   -19906.647   -19137.377    239516.14     239584.3    238528.65    5.2324645 
     263    1487.3288    768.81709   -19906.194   -19137.377    239545.75    239605.34    238544.88     5.351042 
     264    1486.4587    768.36731   -19905.744   -19137.376    239573.94    239624.98    238562.86    5.4620674 
     265    1485.6088      767.928   -19905.304   -19137.376    239600.08    239641.55    238582.61    5.5653315 
     266    1484.7938    767.50672   -19904.882   -19137.376     239623.9    239655.12    238603.93    5.6606413 
     267    1484.0283    767.11102   -19904.486   -19137.375       239645    239665.94    238625.19    5.7478188 
     268    1483.3264    766.74821   -19904.123   -19137.375    239662.36    239674.34    238646.32    5.8267005 
     269    1482.7017    766.42527     -19903.8   -19137.374    239675.72    239679.71       238667    5.8971403 
     270    1482.1667    766.14877   -19903.523   -19137.374    239684.93     239681.4    238686.55    5.9590099 
     271    1481.7334    765.92478   -19903.298   -19137.374    239689.94    239678.13    238704.47    6.0122005 
     272    1481.4121     765.7587   -19903.132   -19137.373    239692.44    239669.21       238721    6.0566217 
     273    1481.2116    765.65503   -19903.028   -19137.373     239691.2    239654.38    238733.74    6.0922011 
     274    1481.1385    765.61724    -19902.99   -19137.373    239684.25    239633.51    238742.99    6.1188828 
     275    1481.1976     765.6478   -19903.021   -19137.373    239671.92    239607.26    238749.36    6.1366269 
     276    1481.3919    765.74825   -19903.121   -19137.373    239654.58    239576.77    238753.43    6.1454123 
     277    1481.7225    765.91913   -19903.292   -19137.373    239632.21    239541.06    238754.24    6.1452364 
     278    1482.1881    766.15979   -19903.533   -19137.373    239604.28    239500.51    238753.44    6.1361128 
     279    1482.7851    766.46842   -19903.842   -19137.373    239571.96    239455.57    238750.03    6.1180736 
     280     1483.508    766.84207   -19904.216   -19137.374    239535.05    239407.04    238745.16    6.0911688 
     281    1484.3488     767.2767   -19904.651   -19137.374    239494.37    239354.28    238739.26    6.0554656 
     282    1485.2978    767.76726   -19905.142   -19137.374    239449.26    239296.84    238730.68    6.0110491 
     283    1486.3438    768.30791   -19905.683   -19137.375    239399.16    239234.98    238719.15    5.9580212 
     284    1487.4739     768.8921   -19906.267   -19137.375     239345.1    239169.69     238704.3    5.8964999 
     285    1488.6743    769.51262   -19906.888   -19137.376    239288.15    239101.89    238686.94    5.8266192 
     286    1489.9301    770.16175   -19907.538   -19137.376    239229.56    239031.82    238668.47    5.7485293 
     287    1491.2257    770.83145   -19908.208   -19137.377    239169.29     238960.3    238648.44    5.6623954 
     288    1492.5451    771.51345   -19908.891   -19137.377    239108.19    238889.54    238628.22    5.5683961 
     289    1493.8721    772.19942   -19909.577   -19137.378    239046.13    238818.81    238608.49    5.4667253 
     290    1495.1912    772.88123    -19910.26   -19137.378       238983    238750.09     238589.6    5.3575902 
     291    1496.4868    773.55098    -19910.93   -19137.379    238920.85    238682.24    238572.54    5.2412102 
     292    1497.7445    774.20109    -19911.58   -19137.379    238860.54    238615.84    238557.26    5.1178165 
     293    1498.9504    774.82444   -19912.204    -19137.38    238802.34    238552.59    238543.85    4.9876514 
     294    1500.0919     775.4145   -19912.795    -19137.38    238747.16    238493.24    238532.49    4.8509679 
     295    1501.1576    775.96535   -19913.346    -19137.38    238694.94    238437.95    238524.52    4.7080283 
     296    1502.1375    776.47186   -19913.853   -19137.381    238645.17     238385.9    238521.09     4.559105 
     297    1503.0234    776.92984   -19914.311   -19137.381    238598.06     238339.3    238522.63    4.4044807 
     298    1503.8088    777.33578   -19914.717   -19137.381    238553.31    238298.41    238529.23    4.2444461 
     299     1504.488    777.68688   -19915.068   -19137.381    238511.33     238262.3     238540.2    4.0792978 
     300    1505.0569    777.98094   -19915.362   -19137.381    238473.24    238230.89    238555.51    3.9093378 
     301    1505.5121    778.21627   -19915.598   -19137.381    238439.85    238204.14    238575.02     3.734874 
     302    1505.8517     778.3918   -19915.773   -19137.381     238410.9    238181.86    238600.04    3.5562193 
     303     1506.075    778.50724   -19915.889   -19137.381    238386.14     238164.6    238629.79    3.3736902 
     304    1506.1827    778.56289   -19915.944   -19137.381    238366.02    238151.87    238665.09    3.1876065 
     305    1506.1762     778.5595   -19915.941   -19137.381    238351.04     238143.8    238706.43    2.9982915 
     306    1506.0577    778.49827   -19915.879   -19137.381    238341.22    238139.32    238752.43    2.8060697 
     307    1505.8307    778.38095   -19915.762   -19137.381     238335.5    238139.62    238803.93    2.6112671 
     308    1505.4996    778.20978    -19915.59   -19137.381    238334.47    238143.36    238860.98    2.4142106 
     309    1505.0695    777.98746   -19915.368    -19137.38    238339.17    238150.04    238923.26    2.2152293 
     310    1504.5465    777.71713   -19915.097    -19137.38    238348.63     238160.6    238989.77    2.0146535 
     311    1503.9373    777.40219   -19914.782    -19137.38    238363.06    238174.94    239060.68    1.8128127 
     312    1503.2492    777.04651   -19914.426    -19137.38    238382.33    238191.53    239136.95    1.6100355 
     313    1502.4905    776.65435   -19914.034   -19137.379    238404.24    238210.87    239215.88    1.4066478 
     314    1501.6701     776.2303   -19913.609   -19137.379    238430.67    238232.99    239296.56    1.2029732 
     315    1500.7977     775.7793   -19913.158   -19137.379    238461.53    238257.39    239379.21   0.99933441 
     316    1499.8832    775.30658   -19912.685   -19137.378    238494.38    238282.35    239462.92   0.79605421 
     317    1498.9371    774.81758   -19912.195   -19137.378     238528.9    238308.83    239547.59   0.59345268 
     318    1497.9703     774.3178   -19911.695   -19137.378    238564.46    238335.95     239633.1   0.39184348 
     319    1496.9935    773.81288    -19911.19   -19137.377    238600.87    238361.92    239718.93   0.19153653 
     320    1496.0179    773.30858   -19910.685   -19137.377    238637.62    238387.36    239803.75 -0.0071623438 
     321    1495.0545    772.81057   -19910.187   -19137.376    238673.72    238410.58    239886.69  -0.20395339 
     322    1494.1141    772.32448   -19909.701   -19137.376    238709.06    238433.18    239966.98  -0.39854258 
     323    1493.2074    771.85579   -19909.232   -19137.376    238744.21    238454.99    240044.35  -0.59064213 
     324    1492.3445    771.40977   -19908.785   -19137.375    238777.67    238476.69    240118.72  -0.77996955 
     325     1491.535    770.99131   -19908.366   -19137.375    238809.16    238498.46     240187.8    -0.966248 
     326    1490.7872     770.6048    -19907.98   -19137.375    238837.76    238519.06    240251.53   -1.1492079 
     327    1490.1087    770.25404   -19907.629   -19137.375    238862.85    238538.76    240310.79   -1.3285865 
     328    1489.5059    769.94248   -19907.317   -19137.374    238884.39    238557.32    240364.53   -1.5041291 
     329     1488.985    769.67322   -19907.048   -19137.374    238901.79    238574.84    240411.28   -1.6755906 
     330    1488.5509    769.44879   -19906.823   -19137.374    238914.39    238590.94    240451.59   -1.8427342 
     331     1488.207    769.27107   -19906.645   -19137.374    238923.57    238605.92    240485.77   -2.0053303 
     332    1487.9559    769.14126   -19906.515   -19137.374    238930.18    238619.28    240513.15   -2.1631568 
     333    1487.7988    769.06002   -19906.434   -19137.374    238933.12    238631.88    240533.32   -2.3159999 
     334    1487.7356    769.02739   -19906.401   -19137.374    238932.29    238643.51    240545.31    -2.463655 
     335    1487.7656    769.04289   -19906.417   -19137.374     238926.4    238654.35    240548.65   -2.6059289 
     336     1487.887    769.10562    -19906.48   -19137.374    238915.95     238662.7    240543.86   -2.7426386 
     337     1488.097     769.2142   -19906.588   -19137.374    238900.56    238670.11    240531.25   -2.8736101 
     338    1488.3922    769.36676   -19906.741   -19137.374    238881.74    238677.87    240512.43   -2.9986815 
     339    1488.7678    769.56092   -19906.936   -19137.375     238859.5    238683.89    240486.34   -3.1177026 
     340    1489.2186    769.79395   -19907.169   -19137.375    238833.99    238687.66    240454.62   -3.2305338 
     341    1489.7386    770.06276   -19907.438   -19137.375    238805.57    238690.62    240418.79   -3.3370462 
     342    1490.3212     770.3639   -19907.739   -19137.375    238773.84    238693.74     240379.6   -3.4371204 
     343    1490.9591    770.69361   -19908.069   -19137.375    238739.04    238695.51    240336.48   -3.5306473 
     344    1491.6445    771.04791   -19908.424   -19137.376    238701.31    238697.12    240290.28   -3.6175307 
     345     1492.369    771.42242   -19908.799   -19137.376    238660.93    238699.85    240240.21   -3.6976877 
     346    1493.1239    771.81263   -19909.189   -19137.376    238619.69    238702.98    240186.94   -3.7710484 
     347    1493.9004      772.214   -19909.591   -19137.377    238577.42    238704.47    240130.01   -3.8375553 
     348    1494.6896    772.62198   -19909.999   -19137.377    238535.53    238706.54    240070.88   -3.8971625 
     349    1495.4827    773.03193   -19910.409   -19137.377    238493.82    238709.27     240011.3   -3.9498351 
     350    1496.2707    773.43925   -19910.817   -19137.378    238452.31    238710.53    239951.59   -3.9955503 
     351    1497.0446    773.83932   -19911.217   -19137.378     238412.3    238710.96    239892.42   -4.0342969 
     352    1497.7957    774.22753   -19911.606   -19137.378     238373.4    238712.69    239834.06   -4.0660754 
     353    1498.5151    774.59943   -19911.978   -19137.378    238335.98    238715.18    239777.77   -4.0908983 
     354    1499.1948    774.95077   -19912.329   -19137.379    238300.58    238719.14    239723.12   -4.1087887 
     355     1499.827    775.27754   -19912.656   -19137.379    238267.28    238723.17    239670.72   -4.1197813 
     356    1500.4046    775.57611   -19912.955   -19137.379    238236.65    238726.87    239620.21   -4.1239233 
     357    1500.9212    775.84318   -19913.222   -19137.379    238209.07    238731.59     239573.1   -4.1212729 
     358    1501.3712    776.07576   -19913.455   -19137.379     238185.8    238736.53    239529.44   -4.1118986 
     359    1501.7496    776.27135   -19913.651    -19137.38    238165.86    238742.58    239489.48   -4.0958813 
     360    1502.0521    776.42774   -19913.807    -19137.38    238149.61    238749.28     239451.9   -4.0733125 
     361    1502.2757    776.54331   -19913.923    -19137.38    238138.38     238756.4    239418.11    -4.044294 
     362    1502.4186     776.6172   -19913.997    -19137.38    238132.08    238763.87     239387.9   -4.0089393 
     363    1502.4805    776.64915   -19914.029    -19137.38    238130.86    238770.67    239361.63   -3.9673724 
     364     1502.462    776.63963   -19914.019    -19137.38    238135.06     238776.7    239338.33   -3.9197284 
     365    1502.3657    776.58984   -19913.969    -19137.38    238143.83    238782.86    239319.31   -3.8661518 
     366     1502.195    776.50159   -19913.881   -19137.379    238157.28    238789.01     239303.7    -3.806796 
     367    1501.9545    776.37728   -19913.757   -19137.379    238176.01    238795.05    239290.28   -3.7418246 
     368    1501.6499    776.21983   -19913.599   -19137.379    238200.59    238801.71     239280.3   -3.6714115 
     369    1501.2877    776.03263   -19913.411   -19137.379    238229.62    238808.08     239272.7   -3.5957405 
     370    1500.8754    775.81948   -19913.198   -19137.379    238263.17    238813.13    239266.79   -3.5150044 
     371    1500.4205    775.58432   -19912.963   -19137.378    238302.73    238816.89    239262.85   -3.4294039 
     372    1499.9309    775.33124   -19912.709   -19137.378    238346.58    238819.19    239260.66   -3.3391473 
     373    1499.4147    775.06444   -19912.442   -19137.378    238393.51    238821.27    239260.24    -3.244453 
     374    1498.8798    774.78791   -19912.165   -19137.378    238444.78     238822.3    239260.34   -3.1455463 
     375    1498.3335    774.50557   -19911.883   -19137.377    238499.33    238822.56    239260.24    -3.042659 
     376    1497.7834    774.22121   -19911.598   -19137.377     238557.5    238821.03    239259.79   -2.9360316 
     377    1497.2362    773.93835   -19911.315   -19137.377    238617.34    238818.42    239258.11   -2.8259118 
     378    1496.6981    773.66017   -19911.037   -19137.377     238679.7    238814.85    239254.42   -2.7125526 
     379    1496.1744    773.38948   -19910.766   -19137.377    238745.43    238811.02    239248.95   -2.5962113 
     380    1495.6697    773.12858   -19910.505   -19137.376    238813.94    238807.94    239242.46   -2.4771488 
     381    1495.1873    772.87925   -19910.256   -19137.376    238883.67    238804.99    239234.98   -2.3556301 
     382    1494.7294    772.64256   -19910.019   -19137.376    238955.75    238801.25    239227.76    -2.231924 
     383    1494.2969    772.41901   -19909.795   -19137.376    239028.86    238796.82    239218.72   -2.1063015 
     384    1493.8898    772.20853   -19909.585   -19137.376    239103.22    238791.73    239208.67   -1.9790336 
     385    1493.5069    772.01064   -19909.387   -19137.376    239178.77    238787.04    239197.09   -1.8503916 
     386    1493.1466     771.8244   -19909.201   -19137.377    239255.49    238782.19       239184   -1.7206473 
     387    1492.8064    771.64851   -19909.025   -19137.377    239333.18    238778.44     239170.4   -1.5900726 
     388    1492.4829    771.48132   -19908.858   -19137.377     239410.5    238775.78    239157.24   -1.4589376 
     389    1492.1725    771.32087   -19908.698   -19137.377    239488.85    238773.87    239143.65   -1.3275097 
     390    1491.8708    771.16492   -19908.542   -19137.377     239567.2    238771.99     239129.5   -1.1960529 
     391     1491.573    771.01096   -19908.388   -19137.377    239644.11    238771.69    239115.19   -1.0648267 
     392    1491.2742     770.8565   -19908.234   -19137.378    239721.13     238772.3    239102.24  -0.93408642 
     393    1490.9696    770.69904   -19908.077   -19137.378    239797.07    238774.82    239088.54   -0.8040832 
     394    1490.6543    770.53608   -19907.914   -19137.378    239872.51    238779.62    239075.52  -0.67506285 
     395    1490.3238    770.36522   -19907.743   -19137.378    239947.31       238786    239063.94  -0.54726548 
     396    1489.9734    770.18412   -19907.562   -19137.378     240020.6    238794.02    239054.06  -0.42092504 
     397    1489.5989    769.99055   -19907.369   -19137.378     240092.9    238803.35    239045.47  -0.29626813 
     398    1489.1968    769.78267   -19907.161   -19137.378    240163.76    238815.81    239039.44  -0.17351301 
     399    1488.7641    769.55901   -19906.937   -19137.378    240233.64    238831.31     239036.3 -0.052869565 
     400    1488.2989    769.31854   -19906.697   -19137.379    240303.02    238848.81    239034.52  0.065460183 
     401       1487.8    769.06064   -19906.439   -19137.379     240371.1     238868.8    239034.86    0.1812837 
     402    1487.2666    768.78493   -19906.163   -19137.379    240436.97    238889.59    239038.59   0.29441713 
     403    1486.6989    768.49149    -19905.87   -19137.378    240501.42    238913.69    239044.82   0.40468503 
     404    1486.0982      768.181   -19905.559   -19137.378    240563.52    238939.36    239053.73   0.51192123 
     405    1485.4668     767.8546   -19905.233   -19137.378    240622.33    238966.21     239065.5   0.61596984 
     406    1484.8074    767.51375   -19904.892   -19137.378    240679.32    238994.13    239080.71   0.71668644 
     407    1484.1235    767.16026   -19904.538   -19137.378    240732.65    239022.55    239098.84   0.81393698 
     408    1483.4198    766.79648   -19904.174   -19137.378    240782.22    239052.27    239119.47   0.90759538 
     409    1482.7017    766.42532   -19903.803   -19137.378    240827.48    239082.49     239140.6   0.99754319 
     410    1481.9757       766.05   -19903.427   -19137.377    240868.41    239112.11    239163.88    1.0836709 
     411    1481.2484    765.67404   -19903.051   -19137.377    240903.84    239142.26    239189.55     1.165878 
     412     1480.527    765.30119   -19902.678   -19137.377    240932.54    239171.62    239217.57    1.2440732 
     413    1479.8193    764.93537   -19902.312   -19137.377    240953.67     239199.3    239246.51    1.3181748 
     414    1479.1331    764.58065   -19901.957   -19137.376    240970.21    239225.19    239277.03    1.3881105 
     415    1478.4765    764.24126   -19901.617   -19137.376    240982.33    239247.23    239309.82    1.4538158 
     416    1477.8578    763.92141   -19901.297   -19137.376    240989.66    239267.15    239342.68    1.5152342 
     417    1477.2848    763.62525   -19901.001   -19137.376    240991.34    239284.68     239376.4    1.5723181 
     418    1476.7653    763.35672   -19900.732   -19137.375    240985.38    239299.47    239411.76    1.6250294 
     419    1476.3061    763.11932   -19900.494   -19137.375    240973.79    239311.66    239446.03    1.6733397 
     420    1475.9132    762.91622   -19900.291   -19137.375    240956.85    239320.82     239478.1    1.7172302 
     421     1475.592    762.75019   -19900.125   -19137.375       240934    239325.81     239508.7    1.7566912 
     422    1475.3471    762.62361   -19899.998   -19137.375    240905.69    239326.65    239537.33    1.7917202 
     423    1475.1822    762.53838   -19899.913   -19137.375    240871.59    239322.51    239563.89    1.8223226 
     424    1475.0997    762.49573    -19899.87   -19137.375    240833.43    239315.03    239589.76    1.8485114 
     425    1475.1009    762.49633   -19899.871   -19137.375    240790.52    239303.75    239614.28    1.8703058 
     426    1475.1857    762.54021   -19899.915   -19137.375    240742.39    239287.76    239636.09    1.8877326 
     427     1475.353    762.62666   -19900.001   -19137.375    240688.58    239268.58    239656.09    1.9008268 
     428    1475.5999    762.75431   -19900.129   -19137.375    240630.96    239248.19    239675.99    1.9096308 
     429    1475.9226    762.92112   -19900.296   -19137.375    240568.89    239224.96    239693.63    1.9141953 
     430    1476.3159    763.12442     -19900.5   -19137.375    240502.24    239198.05     239709.6    1.9145778 
     431    1476.7738     763.3611   -19900.736   -19137.375    240433.29    239169.46    239724.43    1.9108413 
     432    1477.2891    763.62744   -19901.003   -19137.376    240361.93    239137.17     239738.6    1.9030541 
     433    1477.8536    763.91927   -19901.295   -19137.376    240288.28    239102.84    239751.95    1.8912903 
     434    1478.4589    764.23212   -19901.608   -19137.376     240214.6    239066.59    239763.84    1.8756295 
     435    1479.0957    764.56133   -19901.938   -19137.377    240140.05    239028.92    239775.02    1.8561564 
     436    1479.7548    764.90203   -19902.279   -19137.377    240065.24    238990.81    239786.02    1.8329606 
     437    1480.4266    765.24925   -19902.626   -19137.377    239991.37    238951.75    239796.21    1.8061369 
     438    1481.1012    765.59798   -19902.975   -19137.377    239918.03    238912.68    239806.57    1.7757851 
     439    1481.7691    765.94325   -19903.321   -19137.378    239845.54    238871.72    239817.46    1.7420106 
     440    1482.4209    766.28017   -19903.658   -19137.378    239776.43    238830.52    239828.72    1.7049243 
     441    1483.0477    766.60415   -19903.982   -19137.378    239711.41    238789.11    239840.95    1.6646414 
     442    1483.6411     766.9109   -19904.289   -19137.379    239650.35    238748.35    239853.78    1.6212809 
     443    1484.1937    767.19653   -19904.575   -19137.379    239594.32    238709.49    239868.45    1.5749636 
     444    1484.6986    767.45754   -19904.837   -19137.379    239544.05    238672.49    239884.01    1.5258127 
     445    1485.1499    767.69078    -19905.07   -19137.379    239499.56    238637.33    239901.52    1.4739536 
     446    1485.5421    767.89353   -19905.273   -19137.379    239460.23    238603.38    239921.78    1.4195142 
     447    1485.8712    768.06362   -19905.443   -19137.379    239426.27    238571.83    239943.17    1.3626256 
     448     1486.134    768.19951   -19905.579   -19137.379    239398.11    238542.39    239966.37    1.3034223 
     449    1486.3289    768.30025    -19905.68    -19137.38    239375.01    238515.85    239991.58    1.2420396 
     450    1486.4552    768.36549   -19905.745   -19137.379    239357.78    238492.47    240016.77    1.1786139 
     451    1486.5132     768.3955   -19905.775   -19137.379    239346.03    238472.55    240043.75    1.1132831 
     452    1486.5047    768.39109    -19905.77   -19137.379    239341.16    238456.25    240070.71    1.0461864 
     453    1486.4322    768.35363   -19905.733   -19137.379     239340.8    238443.41    240098.95   0.97746449 
     454    1486.2991    768.28482   -19905.664   -19137.379    239342.87    238433.95    240127.19   0.90726016 
     455    1486.1096    768.18686   -19905.566   -19137.379    239347.19    238426.21    240155.24   0.83571708 
     456    1485.8691    768.06257   -19905.441   -19137.379    239355.62    238421.14    240183.53    0.7629805 
     457    1485.5839    767.91515   -19905.294   -19137.379    239367.29    238418.02    240210.54   0.68919732 
     458    1485.2609    767.74818   -19905.126   -19137.378    239381.96    238415.81    240237.32   0.61451458 
     459     1484.908    767.56573   -19904.944   -19137.378    239399.07    238414.95    240262.69   0.53908009 
     460    1484.5335     767.3722    -19904.75   -19137.378    239418.03    238414.91    240287.47   0.46304362 
     461    1484.1467    767.17224    -19904.55   -19137.377    239439.56    238413.08    240310.56   0.38655637 
     462    1483.7564    766.97049   -19904.348   -19137.377    239463.48    238411.76    240331.65    0.3097703 
     463    1483.3712    766.77137   -19904.148   -19137.377    239487.95    238411.84    240350.37   0.23283857 
     464    1482.9999    766.57945   -19903.956   -19137.377    239512.48     238412.3    240366.65   0.15591562 
     465    1482.6511    766.39916   -19903.776   -19137.376    239537.85    238413.31    240379.76  0.079156866 
     466    1482.3326    766.23448   -19903.611   -19137.376    239563.49    238414.01    240389.61 0.0027173853 
     467    1482.0516    766.08927   -19903.465   -19137.376    239588.07    238413.43    240397.08 -0.073247995 
     468    1481.8155    765.96722   -19903.343   -19137.376    239610.09    238410.16    240402.41  -0.14858422 
     469    1481.6303    765.87146   -19903.247   -19137.376    239630.32    238404.74    240405.08  -0.22313611 
     470    1481.5008    765.80451    -19903.18   -19137.376    239648.96    238399.14    240405.51  -0.29674875 
     471    1481.4309    765.76839   -19903.144   -19137.376    239664.61    238391.15       240403   -0.3692667 
     472    1481.4234    765.76454    -19903.14   -19137.375    239677.79    238382.09    240396.44  -0.44053528 
     473    1481.4805    765.79402   -19903.169   -19137.375    239687.08    238371.56    240386.57  -0.51040338 
     474    1481.6033    765.85752   -19903.233   -19137.375    239694.47    238359.28    240372.33  -0.57872201 
     475    1481.7923     765.9552   -19903.331   -19137.376    239700.93    238345.84     240353.3  -0.64534344 
     476    1482.0465    766.08661   -19903.462   -19137.376     239705.7    238330.85    240331.69  -0.71012229 
     477    1482.3641    766.25076   -19903.626   -19137.376    239708.65    238314.27    240306.72  -0.77291666 
     478    1482.7426    766.44644   -19903.822   -19137.376    239706.32    238296.97     240279.2  -0.83358774 
     479    1483.1795    766.67229   -19904.048   -19137.376    239700.83    238279.76    240248.77  -0.89200053 
     480    1483.6718    766.92674   -19904.303   -19137.376    239694.14     238262.8    240216.25  -0.94802439 
     481    1484.2162    767.20814   -19904.584   -19137.376     239683.6    238246.15    240181.14   -1.0015336 
     482    1484.8096    767.51488   -19904.891   -19137.376    239668.94    238230.81    240143.12   -1.0524079 
     483     1485.449    767.84538   -19905.222   -19137.376    239651.84    238214.85    240101.47   -1.1005309 
     484    1486.1313    768.19809   -19905.575   -19137.376    239630.95    238197.69    240056.23   -1.1457923 
     485    1486.8539    768.57162   -19905.948   -19137.377    239606.86     238181.9    240008.05   -1.1880893 
     486    1487.6144     768.9647   -19906.341   -19137.377    239580.25    238166.47    239956.48   -1.2273255 
     487    1488.4107    769.37634   -19906.753   -19137.377    239550.89    238151.43    239902.19   -1.2634107 
     488    1489.2415    769.80577   -19907.182   -19137.377    239518.11    238136.48    239843.43   -1.2962629 
     489    1490.1055     770.2524   -19907.629   -19137.377    239482.12    238121.96    239782.63   -1.3258097 
     490    1491.0023    770.71599   -19908.093   -19137.377    239443.96    238108.52    239718.44   -1.3519882 
     491    1491.9319    771.19647   -19908.573   -19137.377    239403.43    238095.52    239650.68   -1.3747448 
     492    1492.8944    771.69402   -19909.071   -19137.377    239360.75    238083.26    239579.97   -1.3940346 
     493    1493.8907      772.209   -19909.585   -19137.376    239316.19    238070.65     239506.9   -1.4098227 
     494    1494.9217    772.74197   -19910.118   -19137.376    239268.89    238057.61    239431.87   -1.4220835 
     495    1495.9887    773.29351    -19910.67   -19137.376    239221.13    238044.42    239353.97   -1.4308006 
     496    1497.0927    773.86415    -19911.24   -19137.376    239172.99    238031.92    239272.08   -1.4359692 
     497    1498.2341    774.45415    -19911.83   -19137.376    239123.88    238019.37    239188.48   -1.4375969 
     498    1499.4128    775.06343    -19912.44   -19137.376    239073.93    238005.96    239102.39    -1.435699 
     499    1500.6282     775.6917   -19913.068   -19137.376    239023.34    237991.84    239014.61   -1.4302989 
     500    1501.8796    776.33855   -19913.715   -19137.376    238971.87    237978.39    238925.33   -1.4214309 
     501    1503.1655    777.00327   -19914.379   -19137.376    238918.97    237964.44    238833.43   -1.4091381 
     502    1504.4839    777.68476   -19915.061   -19137.376     238866.4    237950.43    238739.03   -1.3934734 
     503    1505.8319    778.38158   -19915.758   -19137.376    238814.71    237936.54    238642.12   -1.3745002 
     504    1507.2062    779.09196   -19916.468   -19137.376     238764.3    237923.28    238542.97   -1.3522911 
     505    1508.6028    779.81385    -19917.19   -19137.376    238714.85    237910.08    238442.04   -1.3269265 
     506    1510.0168    780.54479   -19917.921   -19137.377    238665.32    237897.13    238338.83    -1.298496 
     507    1511.4429    781.28193   -19918.659   -19137.377    238617.19    237883.46    238235.81   -1.2670975 
     508    1512.8745    782.02197   -19919.399   -19137.377    238571.96    237868.63    238134.11   -1.2328346 
     509    1514.3045    782.76116   -19920.138   -19137.377    238529.79    237853.69       238034   -1.1958156 
     510    1515.7252    783.49549   -19920.873   -19137.377    238489.51    237839.45    237935.12   -1.1561554 
     511    1517.1278    784.22055   -19921.598   -19137.378    238452.46    237823.25    237836.81   -1.1139748 
     512    1518.5031    784.93144    -19922.31   -19137.378    238419.63    237807.03    237740.48   -1.0694005 
     513    1519.8407    785.62287   -19923.001   -19137.378    238390.16    237791.99    237645.35   -1.0225672 
     514      1521.13    786.28929   -19923.668   -19137.379    238364.62    237777.14     237553.3  -0.97361347 
     515    1522.3595    786.92485   -19924.304   -19137.379    238343.33    237761.99    237464.92  -0.92268069 
     516    1523.5175    787.52342   -19924.903   -19137.379    238327.66    237747.15    237380.79  -0.86991305 
     517    1524.5917    788.07872   -19925.459    -19137.38    238317.42    237733.93    237301.87  -0.81545624 
     518    1525.5699    788.58433   -19925.965    -19137.38    238312.06    237722.03    237230.28  -0.75945804 
     519    1526.4395    789.03388   -19926.415   -19137.381    238312.42     237711.9    237165.22  -0.70206831 
     520    1527.1883    789.42093   -19926.802   -19137.381    238320.14    237704.64    237107.84  -0.64343884 
     521    1527.8035    789.73893    -19927.12   -19137.381    238335.46    237701.66     237057.1  -0.58372096 
     522    1528.2727    789.98146   -19927.363   -19137.382    238357.29    237701.54    237015.34  -0.52306461 
     523    1528.5841    790.14245   -19927.525   -19137.382     238384.9    237703.92    236981.77  -0.46162037 
     524    1528.7268    790.21621   -19927.599   -19137.383    238420.66    237709.33    236957.69  -0.39953901 
     525    1528.6908     790.1976   -19927.581   -19137.383    238465.71    237718.73    236943.17  -0.33697013 
     526    1528.4672      790.082   -19927.465   -19137.383    238519.49    237733.39    236938.78   -0.2740627 
     527    1528.0483    789.86546   -19927.249   -19137.383    238580.57    237753.32    236943.64  -0.21096233 
     528    1527.4282    789.54494   -19926.929   -19137.384    238649.74    237777.76    236959.07  -0.14781134 
     529    1526.6031    789.11842   -19926.502   -19137.384    238726.01    237807.09     236985.4 -0.084750005 
     530     1525.571    788.58492   -19925.969   -19137.384    238809.52    237841.26    237021.74 -0.021914495 
     531    1524.3323    787.94461   -19925.328   -19137.384    238900.76    237880.35    237068.27  0.040561095 
     532    1522.8895    787.19883   -19924.582   -19137.384    238999.13    237926.67    237124.38   0.10254375 
     533    1521.2474    786.34999   -19923.733   -19137.383    239104.26    237978.83    237190.37   0.16390204 
     534    1519.4129    785.40175   -19922.785   -19137.383     239215.3    238036.54    237265.09   0.22450919 
     535    1517.3961     784.3592   -19921.742   -19137.383    239331.34    238100.99    237347.91   0.28424376 
     536     1515.209     783.2287   -19920.611   -19137.382    239451.72    238170.01    237438.15   0.34298745 
     537    1512.8665    782.01784     -19919.4   -19137.382    239576.08    238243.35     237534.9    0.4006262 
     538    1510.3853    780.73526   -19918.116   -19137.381    239702.82    238319.23    237638.37   0.45704986 
     539    1507.7844    779.39081   -19916.771   -19137.381    239831.89    238397.64    237747.52   0.51215297 
     540    1505.0848    777.99536   -19915.375    -19137.38    239961.67    238478.07    237861.77   0.56583541 
     541    1502.3094    776.56071    -19913.94   -19137.379    240091.04    238560.32    237980.72   0.61800143 
     542    1499.4823    775.09938   -19912.478   -19137.378    240218.15    238644.72    238102.07   0.66856119 
     543    1496.6291    773.62452   -19911.002   -19137.377    240342.14    238730.67    238225.15   0.71743052 
     544    1493.7758    772.14962   -19909.526   -19137.377    240461.68    238815.54    238349.32   0.76452873 
     545    1490.9489    770.68835   -19908.064   -19137.376    240577.15    238899.57     238474.2   0.80977809 
     546    1488.1748     769.2544   -19906.629   -19137.375       240687    238981.13    238597.35   0.85310531 
     547    1485.4798    767.86133   -19905.235   -19137.374    240791.07     239061.3    238719.14   0.89444154 
     548    1482.8895    766.52239   -19903.896   -19137.373     240887.7    239139.59    238837.76   0.93372289 
     549    1480.4287    765.25034   -19902.623   -19137.373    240976.47    239214.73    238951.58   0.97089108 
     550    1478.1206    764.05727   -19901.429   -19137.372    241056.42    239286.94    239059.29    1.0058926 
     551    1475.9869    762.95432   -19900.326   -19137.371    241126.48    239354.95    239158.62    1.0386795 
     552    1474.0474    761.95178   -19899.323   -19137.371     241186.1     239417.9    239250.42    1.0692104 
     553    1472.3202    761.05898   -19898.429    -19137.37    241234.68    239474.67    239334.93    1.0974483 
     554    1470.8211    760.28406   -19897.654    -19137.37    241271.28    239525.59    239411.37    1.1233596 
     555    1469.5631    759.63382   -19897.003   -19137.369    241296.34    239568.97    239479.41     1.146916 
     556    1468.5568    759.11363   -19896.483   -19137.369    241309.07     239605.5    239539.32    1.1680941 
     557    1467.8097    758.72742   -19896.096   -19137.369    241309.83    239634.42    239589.57    1.1868749 
     558    1467.3266    758.47773   -19895.847   -19137.369    241297.74    239655.36    239629.48    1.2032447 
     559    1467.1095    758.36552   -19895.735   -19137.369     241273.5    239666.02    239659.95    1.2171975 
     560    1467.1571    758.39009   -19895.759   -19137.369    241237.13    239667.14    239681.32    1.2287326 
     561    1467.4645    758.54901   -19895.918   -19137.369    241188.98    239660.64    239693.06    1.2378528 
     562    1468.0238    758.83813   -19896.208    -19137.37    241130.81    239647.91    239695.09    1.2445667 
     563    1468.8243     759.2519   -19896.622    -19137.37    241062.98    239628.79    239687.62    1.2488901 
     564    1469.8526    759.78344   -19897.154   -19137.371    240985.86    239603.61    239671.83    1.2508434 
     565    1471.0924    760.42433   -19897.796   -19137.371    240901.52    239571.57    239647.21    1.2504488 
     566    1472.5249     761.1648   -19898.537   -19137.372    240809.14    239533.89    239613.49    1.2477329 
     567    1474.1291    761.99402   -19899.367   -19137.373     240709.8    239490.92    239571.36    1.2427293 
     568    1475.8825    762.90036   -19900.274   -19137.373    240604.02    239441.91    239522.26    1.2354789 
     569    1477.7614    763.87159   -19901.246   -19137.374    240492.63     239388.6    239467.37    1.2260264 
     570    1479.7413    764.89503    -19902.27   -19137.375    240377.32    239332.13    239407.77    1.2144197 
     571    1481.7969    765.95761   -19903.333   -19137.376    240258.36    239272.27    239345.68    1.2007114 
     572    1483.9029     767.0462   -19904.423   -19137.377    240136.76    239210.38     239282.4    1.1849567 
     573     1486.034    768.14778   -19905.525   -19137.377    240015.17    239148.48    239217.98    1.1672128 
     574    1488.1657    769.24969   -19906.628   -19137.378    239892.95    239086.09    239152.48    1.1475403 
     575    1490.2744    770.33972   -19907.719   -19137.379    239770.67    239024.31    239086.38     1.126004 
     576    1492.3378    771.40629   -19908.786   -19137.379    239649.12    238965.04    239021.58    1.1026709 
     577    1494.3348    772.43859   -19909.819    -19137.38    239529.97    238906.31    238959.46    1.0776099 
     578    1496.2462    773.42661   -19910.807   -19137.381    239414.35     238849.4    238898.77    1.0508921 
     579    1498.0546     774.3614   -19911.742   -19137.381    239302.18     238793.4    238841.09    1.0225915 
     580     1499.745    775.23519   -19912.617   -19137.381    239194.41    238740.18    238788.65   0.99278271 
     581    1501.3046    776.04132   -19913.423   -19137.382    239092.91    238688.23    238741.73   0.96154164 
     582    1502.7226    776.77431   -19914.156   -19137.382    238998.04    238638.84    238700.55   0.92894545 
     583    1503.9909    777.42994   -19914.812   -19137.382    238908.66     238592.4    238663.18   0.89507173 
     584    1505.1036     778.0051   -19915.387   -19137.382    238825.35    238547.51    238630.33   0.86000025 
     585    1506.0566    778.49771    -19915.88   -19137.382    238749.56    238506.29    238604.67   0.82381035 
     586    1506.8479    778.90672   -19916.289   -19137.382    238680.91    238467.62    238585.41   0.78658025 
     587    1507.4773    779.23208   -19916.614   -19137.382    238620.24    238432.27     238573.2   0.74838946 
     588    1507.9462    779.47447   -19916.857   -19137.382    238569.14    238401.45    238568.17   0.70931781 
     589    1508.2573     779.6353   -19917.017   -19137.382    238526.12    238375.08    238570.87   0.66944588 
     590    1508.4147    779.71662   -19917.098   -19137.382    238489.34    238352.77    238581.71    0.6288544 
     591    1508.4231    779.72097   -19917.103   -19137.382    238461.08    238334.52    238600.15   0.58762275 
     592    1508.2886    779.65144   -19917.033   -19137.381     238441.9    238319.79    238625.68   0.54582971 
     593    1508.0179    779.51152   -19916.893   -19137.381    238431.71    238309.27    238659.56   0.50355453 
     594    1507.6179    779.30476   -19916.686   -19137.381    238430.39    238301.83     238701.1   0.46087717 
     595    1507.0957    779.03482   -19916.416   -19137.381     238437.6    238297.53    238748.77   0.41787734 
     596    1506.4584    778.70538   -19916.086    -19137.38    238453.36     238296.8    238803.26   0.37463331 
     597    1505.7128       778.32     -19915.7    -19137.38    238476.49    238299.59    238863.79   0.33122109 
     598     1504.866    777.88227   -19915.262    -19137.38    238507.06    238305.38    238929.77   0.28771489 
     599    1503.9248    777.39575   -19914.776    -19137.38    238546.42    238314.55    239000.41   0.24418872 
     600     1502.896    776.86394   -19914.244    -19137.38    238594.31    238327.41     239075.5   0.20071809 
     601    1501.7863    776.29034    -19913.67   -19137.379    238648.95    238343.79    239153.55   0.15737943 
     602    1500.6026    775.67849   -19913.058   -19137.379    238709.79    238362.52    239234.38   0.11424734 
     603    1499.3517    775.03188   -19912.411   -19137.379    238777.45    238383.17    239320.88  0.071394202 
     604    1498.0399     774.3538   -19911.733   -19137.379     238851.6    238405.26    239410.06  0.028891059 
     605    1496.6735    773.64747   -19911.026   -19137.379    238929.82    238429.41    239500.28 -0.013191683 
     606    1495.2589    772.91626   -19910.295   -19137.379    239010.99     238455.7    239591.48 -0.054783795 
     607    1493.8032    772.16378   -19909.542   -19137.378    239096.11    238483.54    239682.83 -0.095816444 
     608    1492.3137    771.39383   -19908.772   -19137.378    239184.46    238514.42    239774.35  -0.13622193 
     609    1490.7981    770.61039   -19907.988   -19137.378    239275.26    238545.46    239864.07  -0.17593202 
     610    1489.2641    769.81749   -19907.195   -19137.378    239367.47    238576.34    239953.26  -0.21487949 
     611    1487.7199    769.01927   -19906.397   -19137.377     239460.6    238609.09    240041.42  -0.25300159 
     612    1486.1739    768.22013   -19905.597   -19137.377    239554.67    238643.18    240127.11  -0.29023806 
     613    1484.6351    767.42469   -19904.802   -19137.377    239646.63    238677.69    240209.04  -0.32652953 
     614    1483.1127    766.63773   -19904.014   -19137.377    239737.14    238712.03    240287.36  -0.36181933 
     615    1481.6164    765.86431   -19903.241   -19137.376    239826.51    238746.18    240360.97  -0.39605337 
     616    1480.1563    765.10955   -19902.485   -19137.376    239914.36    238781.98    240430.65  -0.42918044 
     617    1478.7418     764.3784   -19901.754   -19137.376    240000.78     238817.9    240496.32  -0.46115231 
     618    1477.3824     763.6757   -19901.051   -19137.375    240085.26    238853.83     240556.4  -0.49192382 
     619    1476.0873    763.00622   -19900.381   -19137.375    240165.16    238887.25     240610.9  -0.52145291 
     620    1474.8652    762.37454   -19899.749   -19137.375    240239.56    238919.53    240660.05  -0.54970137 
     621    1473.7245    761.78489   -19899.159   -19137.374    240309.78    238951.27    240703.12  -0.57663396 
     622    1472.6727    761.24121   -19898.615   -19137.374    240375.72    238982.13    240740.88  -0.60221747 
     623     1471.717    760.74718   -19898.121   -19137.374     240435.9    239012.21    240773.01  -0.62642176 
     624    1470.8636    760.30603    -19897.68   -19137.374    240491.75    239040.58    240797.88  -0.64922009 
     625    1470.1178    759.92055   -19897.294   -19137.374    240542.67    239067.16    240816.18   -0.6705885 
     626    1469.4843    759.59309   -19896.967   -19137.374       240588    239091.89    240828.89   -0.6905062 
     627    1468.9668    759.32555   -19896.699   -19137.373    240627.67    239113.31    240836.24  -0.70895434 
     628    1468.5682    759.11952   -19896.493   -19137.373    240661.25     239131.5     240837.5  -0.72591489 
     629    1468.2911    758.97631    -19896.35   -19137.373    240688.32    239146.31    240833.06   -0.7413717 
     630    1468.1373    758.89681    -19896.27   -19137.373    240707.64    239155.79    240821.31  -0.75531089 
     631    1468.1078    758.88153   -19896.255   -19137.373    240718.78    239161.41    240802.86  -0.76772057 
     632    1468.2028    758.93065   -19896.304   -19137.373    240722.78    239162.61    240778.76  -0.77859079 
     633    1468.4221    759.04398   -19896.417   -19137.373    240720.52    239160.93    240749.86  -0.78791345 
     634    1468.7646    759.22106   -19896.594   -19137.373    240712.29     239155.8    240715.86  -0.79568178 
     635    1469.2289    759.46107   -19896.834   -19137.373    240697.57    239147.83     240676.3  -0.80189075 
     636    1469.8126    759.76277   -19897.136   -19137.373    240675.17    239135.01    240631.35  -0.80653879 
     637    1470.5125    760.12458   -19897.498   -19137.373    240646.08    239117.77    240582.25  -0.80962645 
     638    1471.3252    760.54465   -19897.918   -19137.374    240609.65    239096.53    240530.09  -0.81115378 
     639    1472.2462    761.02071   -19898.394   -19137.374    240567.13    239072.14    240474.32   -0.8111212 
     640    1473.2702    761.55002   -19898.924   -19137.374    240517.51    239043.24    240414.54  -0.80953033 
     641    1474.3912    762.12951   -19899.504   -19137.374    240461.64    239011.72    240351.04  -0.80638428 
     642    1475.6026     762.7557    -19900.13   -19137.374    240400.01    238977.46    240285.68  -0.80168869 
     643    1476.8967    763.42462   -19900.799   -19137.375    240334.24    238941.54    240218.81  -0.79545179 
     644    1478.2649    764.13188   -19901.507   -19137.375    240262.22    238902.23    240151.21  -0.78768431 
     645    1479.6981    764.87267   -19902.248   -19137.375    240184.63    238861.05    240081.54   -0.7783996 
     646    1481.1861    765.64188   -19903.017   -19137.376    240105.03    238818.03    240009.74  -0.76761315 
     647    1482.7187    766.43406    -19903.81   -19137.376    240022.87    238774.14     239937.7  -0.75534299 
     648    1484.2847    767.24358    -19904.62   -19137.376       239938    238728.71     239865.2  -0.74160773 
     649     1485.873    768.06458   -19905.441   -19137.377    239852.22    238683.39    239792.12  -0.72642787 
     650    1487.4716    768.89089   -19906.268   -19137.377    239764.79    238639.77    239719.64  -0.70982654 
     651     1489.068    769.71613   -19907.094   -19137.377    239676.29    238596.95    239648.49  -0.69183059 
     652    1490.6502    770.53399   -19907.912   -19137.378    239587.69    238555.77    239577.92  -0.67247239 
     653    1492.2059    771.33814   -19908.716   -19137.378    239499.44    238515.88    239507.14  -0.65178736 
     654    1493.7229    772.12228   -19909.501   -19137.379    239412.08    238476.67     239436.7  -0.62981491 
     655    1495.1894    772.88035   -19910.259   -19137.379    239326.66    238440.05    239367.08  -0.60659893 
     656    1496.5944    773.60656   -19910.986   -19137.379    239243.14    238406.68    239299.99  -0.58218651 
     657    1497.9272    774.29555   -19911.675    -19137.38    239161.48    238375.98    239236.22  -0.55662677 
     658    1499.1785    774.94232   -19912.322    -19137.38    239082.18    238349.39    239174.98  -0.52997201 
     659     1500.339    775.54222   -19912.922    -19137.38     239005.9    238327.35    239115.24  -0.50227917 
     660    1501.4005    776.09094   -19913.471    -19137.38    238933.46    238310.03     239057.9  -0.47360911 
     661    1502.3554    776.58453   -19913.965   -19137.381    238865.12    238297.54    239003.39  -0.44402613 
     662    1503.1971    777.01961     -19914.4   -19137.381    238802.22    238289.92    238951.32   -0.4135983 
     663      1503.92    777.39329   -19914.774   -19137.381    238744.48    238288.92    238903.76  -0.38239768 
     664    1504.5198    777.70331   -19915.084   -19137.381    238690.84    238294.09     238860.6   -0.3505002 
     665    1504.9931    777.94799   -19915.329   -19137.381    238641.49    238304.48    238821.16  -0.31798468 
     666    1505.3377    778.12609   -19915.507   -19137.381    238597.47    238320.88    238785.92  -0.28493316 
     667    1505.5517    778.23671   -19915.618   -19137.381    238560.43    238342.14    238756.01   -0.2514308 
     668    1505.6343    778.27943   -19915.661   -19137.381    238530.73    238369.22    238730.87  -0.21756487 
     669     1505.586    778.25446   -19915.635   -19137.381    238508.23    238402.29    238711.84  -0.18342516 
     670    1505.4082    778.16254   -19915.543   -19137.381    238492.01    238439.92    238698.36  -0.14910446 
     671    1505.1032    778.00487   -19915.386   -19137.381    238481.05    238482.72    238688.41  -0.11469595 
     672    1504.6736    777.78284   -19915.164   -19137.381    238476.06    238531.11    238683.18 -0.080292558 
     673    1504.1229    777.49814   -19914.879   -19137.381    238475.83    238585.75    238683.58 -0.045986445 
     674    1503.4551    777.15295   -19914.533    -19137.38    238480.82    238644.94    238689.72  -0.01186793 
     675    1502.6755    776.74996    -19914.13    -19137.38    238491.36    238709.51    238701.58   0.02197312 
[...]
    9837    1499.7051    775.21456   -19912.588   -19137.373    239424.93    237549.71    239029.64  -0.03567808 
    9838    1499.3979    775.05577   -19912.429   -19137.373    239460.88    237535.41    239060.38 -0.057647434 
    9839    1499.1857    774.94606   -19912.319   -19137.373    239492.85    237519.17    239088.18 -0.079127496 
    9840    1499.0688    774.88563   -19912.259   -19137.373    239519.35    237501.93    239111.46  -0.10008811 
    9841    1499.0461    774.87389   -19912.247   -19137.373    239540.56    237484.15    239129.88  -0.12050138 
    9842    1499.1147    774.90935   -19912.283   -19137.373    239558.25    237465.41     239143.7  -0.14033874 
    9843    1499.2699    774.98957   -19912.363   -19137.374    239571.38    237445.62    239152.43  -0.15957252 
    9844    1499.5054     775.1113   -19912.485   -19137.374    239581.13    237425.01    239156.43  -0.17817887 
    9845    1499.8137     775.2707   -19912.645   -19137.374    239587.16    237404.88    239157.38  -0.19613632 
    9846    1500.1865    775.46338   -19912.838   -19137.374    239589.07    237386.67     239155.7  -0.21342354 
    9847    1500.6141    775.68443   -19913.059   -19137.375    239587.35     237370.8    239151.21  -0.23002065 
    9848    1501.0867    775.92869   -19913.304   -19137.375    239583.28    237357.28    239143.76  -0.24590999 
    9849    1501.5935    776.19067   -19913.566   -19137.375    239577.11    237347.68    239133.33  -0.26107536 
    9850    1502.1236    776.46468   -19913.841   -19137.376     239567.7    237341.92    239119.02  -0.27550233 
    9851    1502.6654    776.74476   -19914.121   -19137.376    239554.56    237339.03    239101.67  -0.28917858 
    9852    1503.2072     777.0248   -19914.401   -19137.377    239538.17    237340.62    239082.62  -0.30209342 
    9853    1503.7373    777.29882   -19914.676   -19137.377     239520.5    237347.21    239061.92  -0.31423834 
    9854    1504.2444    777.56098   -19914.938   -19137.377    239502.16     237356.8    239039.79  -0.32560748 
    9855    1504.7178    777.80566   -19915.183   -19137.378    239481.46    237370.76    239015.74  -0.33619718 
    9856     1505.147    778.02751   -19915.406   -19137.378    239459.89    237391.37     238991.3  -0.34600596 
    9857    1505.5224    778.22158     -19915.6   -19137.378    239439.04    237418.98    238965.75  -0.35503532 
    9858    1505.8351     778.3832   -19915.762   -19137.379    239419.35    237452.13    238939.29  -0.36328877 
    9859    1506.0768    778.50815   -19915.887   -19137.379     239400.2    237492.34    238913.62  -0.37077185 
    9860    1506.2404    778.59269   -19915.972   -19137.379    239383.31    237537.75    238888.18  -0.37749192 
    9861    1506.3194    778.63356   -19916.013   -19137.379    239368.58    237590.07    238863.94    -0.383456 
    9862    1506.3087    778.62802   -19916.007   -19137.379    239354.73    237649.09    238841.98  -0.38867246 
    9863    1506.2039    778.57384   -19915.953    -19137.38    239343.91    237713.99    238821.64   -0.3931515 
    9864    1506.0016    778.46929   -19915.849    -19137.38    239335.69    237785.42     238803.6   -0.3969061 
    9865    1505.6994    778.31308   -19915.693    -19137.38    239331.74    237863.09    238788.11  -0.39995082 
    9866    1505.2959    778.10449   -19915.484    -19137.38    239330.37    237947.16    238775.47  -0.40230046 
    9867    1504.7906    777.84328   -19915.223    -19137.38    239331.85    238036.72    238765.31  -0.40397122 
    9868    1504.1839    777.52968   -19914.909    -19137.38    239336.52    238130.99     238759.6  -0.40497989 
    9869    1503.4773    777.16443   -19914.544    -19137.38    239345.45    238229.79    238758.89  -0.40534377 
    9870    1502.6732    776.74881   -19914.128    -19137.38    239358.62    238333.06    238762.08   -0.4050803 
    9871    1501.7753    776.28464   -19913.664   -19137.379    239377.08     238441.4    238767.72  -0.40420691 
    9872    1500.7878    775.77419   -19913.154   -19137.379    239400.79    238554.63    238776.06  -0.40274238 
    9873    1499.7158    775.22009   -19912.599   -19137.379    239427.85    238670.98    238786.89   -0.4007068 
    9874    1498.5655    774.62546   -19912.004   -19137.379    239458.17    238790.55    238799.81  -0.39811937 
    9875    1497.3439    773.99401   -19911.373   -19137.379    239491.02    238911.01    238816.34  -0.39499788 
    9876    1496.0593    773.32997   -19910.708   -19137.379    239525.32    239031.32    238836.21  -0.39136036 
    9877    1494.7205    772.63795   -19910.016   -19137.378     239561.2    239150.28    238859.33  -0.38722659 
    9878    1493.3376    771.92311   -19909.301   -19137.378     239598.6    239268.91    238885.85  -0.38261765 
    9879    1491.9214    771.19105   -19908.569   -19137.378    239637.45    239386.98    238913.57  -0.37755434 
    9880    1490.4837    770.44788   -19907.825   -19137.377    239676.91    239503.14    238942.26  -0.37205696 
    9881    1489.0371    769.70011   -19907.077   -19137.377    239716.92    239615.58    238972.66  -0.36614501 
    9882    1487.5948    768.95458   -19906.331   -19137.376    239757.31    239724.18    239004.44   -0.3598388 
    9883    1486.1705    768.21836   -19905.594   -19137.376    239797.48    239826.85     239035.9  -0.35316058 
    9884    1484.7783    767.49869   -19904.874   -19137.375    239836.54    239924.17    239066.92  -0.34613222 
    9885     1483.432    766.80281   -19904.178   -19137.375    239873.57     240015.6    239096.82  -0.33877294 
    9886    1482.1457    766.13789   -19903.512   -19137.375    239909.49     240100.9    239126.03  -0.33110071 
    9887    1480.9331    765.51106   -19902.885   -19137.374       239944     240177.2    239152.48  -0.32313427 
    9888    1479.8075    764.92923   -19902.303   -19137.374    239977.15    240244.98    239175.85    -0.314894 
    9889    1478.7817    764.39902   -19901.772   -19137.373    240006.45    240304.25    239194.99    -0.306402 
    9890    1477.8682    763.92678     -19901.3   -19137.373    240030.92    240356.19     239211.8  -0.29768004 
    9891    1477.0784    763.51853   -19900.891   -19137.373    240052.03     240399.3    239225.22  -0.28874957 
    9892    1476.4229     763.1797   -19900.552   -19137.372    240069.17    240433.63    239232.57  -0.27963162 
    9893    1475.9104     762.9148   -19900.287   -19137.372    240081.21    240459.13    239235.05  -0.27034699 
    9894    1475.5479    762.72741   -19900.099   -19137.372    240088.76    240475.38    239233.06  -0.26091737 
    9895    1475.3407    762.62031   -19899.992   -19137.372    240090.55    240483.28    239225.17  -0.25136387 
    9896    1475.2925    762.59538   -19899.967   -19137.372    240087.64    240482.12    239211.25  -0.24170723 
    9897    1475.4049    762.65348   -19900.025   -19137.372     240079.8    240471.48    239190.94  -0.23196839 
    9898    1475.6776    762.79447   -19900.166   -19137.372    240066.93    240451.52    239163.99  -0.22216862 
    9899    1476.1086    763.01723   -19900.389   -19137.372    240048.64     240423.2    239131.55  -0.21232984 
    9900    1476.6933     763.3195   -19900.692   -19137.372    240026.28    240387.14    239093.95  -0.20247259 
    9901    1477.4252    763.69783    -19901.07   -19137.372    239999.77       240343    239052.75  -0.19261785 
    9902    1478.2955    764.14767    -19901.52   -19137.373    239968.43     240289.6    239006.26   -0.1827879 
    9903    1479.2933    764.66348   -19902.037   -19137.373     239932.8    240229.56    238955.59  -0.17300465 
    9904    1480.4064    765.23885   -19902.612   -19137.374    239894.37    240165.56     238900.9  -0.16329026 
    9905     1481.621    765.86665   -19903.241   -19137.374    239853.41    240096.61    238841.56  -0.15366613 
    9906     1482.922    766.53916   -19903.914   -19137.375    239809.22    240023.89    238779.64  -0.14415431 
    9907    1484.2934    767.24806   -19904.623   -19137.375    239762.23    239947.17    238716.55  -0.13477839 
    9908    1485.7182    767.98458    -19905.36   -19137.376    239713.98    239869.29    238652.45  -0.12556094 
    9909    1487.1788    768.73955   -19906.116   -19137.376    239663.88    239789.83    238588.04  -0.11652509 
    9910    1488.6567    769.50352    -19906.88   -19137.377    239613.03    239708.89     238522.7  -0.10769427 
    9911    1490.1336    770.26695   -19907.644   -19137.377    239562.86    239627.81    238458.67 -0.099090268 
    9912    1491.5916    771.02056   -19908.399   -19137.378    239513.87    239546.98    238397.29  -0.09073579 
    9913    1493.0133     771.7555   -19909.134   -19137.379    239466.25    239466.53     238338.4 -0.082654632 
    9914    1494.3825    772.46322   -19909.842   -19137.379     239419.6    239388.12    238283.17 -0.074867951 
    9915    1495.6833    773.13564   -19910.515   -19137.379     239374.2       239313    238231.99 -0.067395382 
    9916    1496.9017    773.76541   -19911.145    -19137.38    239333.07    239240.61    238185.21 -0.060257804 
    9917    1498.0247    774.34593   -19911.726    -19137.38    239294.32    239171.98    238142.09 -0.053477206 
    9918    1499.0415    774.87151   -19912.252    -19137.38    239260.21    239107.78    238104.78 -0.047074494 
    9919    1499.9428    775.33739   -19912.718   -19137.381    239229.57     239048.1    238072.53 -0.041068043 
    9920    1500.7214    775.73987   -19913.121   -19137.381    239201.27    238992.95    238046.79 -0.035473441 
    9921    1501.3722    776.07629   -19913.457   -19137.381    239175.75    238942.39    238027.59 -0.030304781 
    9922     1501.892    776.34496   -19913.726   -19137.381    239154.14    238898.74    238014.54 -0.025575429 
    9923    1502.2792    776.54514   -19913.926   -19137.381    239137.53    238860.55    238008.11 -0.021296013 
    9924    1502.5346    776.67712   -19914.058   -19137.381    239126.22    238827.31    238008.93 -0.017475688 
    9925    1502.6604     776.7422   -19914.123   -19137.381    239120.81    238799.38       238016 -0.014122825 
    9926    1502.6611    776.74255   -19914.123    -19137.38    239119.88    238776.96    238030.04 -0.011243849 
    9927    1502.5421    776.68105   -19914.061    -19137.38    239124.22    238759.17    238050.73 -0.0088436708 
    9928    1502.3104    776.56127   -19913.941    -19137.38    239133.74    238746.48    238078.32 -0.0069259019 
    9929    1501.9741    776.38741   -19913.767   -19137.379    239148.98    238739.43    238112.21 -0.0054920358 
    9930    1501.5418    776.16397   -19913.543   -19137.379    239168.55    238737.64    238151.25 -0.0045431524 
    9931    1501.0229    775.89574   -19913.275   -19137.379    239193.48     238739.5    238195.29 -0.0040798744 
    9932     1500.427    775.58768   -19912.966   -19137.378    239224.12    238744.82    238245.73 -0.0041008631 
    9933    1499.7635    775.24472   -19912.623   -19137.378    239259.51    238753.19    238301.42 -0.0046025217 
    9934    1499.0419    774.87175    -19912.25   -19137.378    239299.19    238763.98    238363.46 -0.0055783027 
    9935    1498.2716    774.47354   -19911.851   -19137.378    239342.51    238777.97    238431.02 -0.0070204198 
    9936    1497.4613    774.05468   -19911.432   -19137.377    239389.15    238794.02    238502.17 -0.0089208143 
    9937    1496.6192    773.61943   -19910.996   -19137.377    239439.48    238812.59    238576.14 -0.011269937 
    9938    1495.7531    773.17171   -19910.548   -19137.377    239493.06    238833.92    238651.59 -0.014057867 
    9939    1494.8696    772.71504   -19910.092   -19137.377    239549.89    238856.18    238729.53 -0.017273544 
    9940    1493.9748    772.25251   -19909.629   -19137.376    239608.35    238880.09    238807.95 -0.020903261 
    9941     1493.074    771.78683   -19909.163   -19137.376    239668.35    238904.96    238887.17 -0.024932923 
    9942    1492.1716    771.32037   -19908.697   -19137.376    239730.26     238930.7    238965.72 -0.029348942 
    9943    1491.2716    770.85515   -19908.231   -19137.376    239792.97    238957.93    239044.24 -0.034137655 
    9944    1490.3775    770.39302   -19907.769   -19137.376    239855.64    238985.36    239121.73 -0.039284749 
    9945    1489.4926     769.9356   -19907.311   -19137.376    239917.35    239010.85    239197.79 -0.044774287 
    9946    1488.6195    769.48429    -19906.86   -19137.376    239978.57    239035.36    239272.07 -0.050588758 
    9947    1487.7606    769.04028   -19906.416   -19137.376    240039.24    239060.33    239343.57 -0.056709841 
    9948    1486.9177    768.60457    -19905.98   -19137.376    240099.61    239084.63    239411.86 -0.063119097 
    9949    1486.0924    768.17799   -19905.554   -19137.376    240159.69    239108.22    239475.82 -0.069797948 
    9950    1485.2864    767.76133   -19905.137   -19137.376    240217.93    239131.59    239535.84 -0.076727551 
    9951    1484.5008    767.35526   -19904.731   -19137.376    240274.88    239155.97    239591.37  -0.08388967 
    9952    1483.7365    766.96018   -19904.336   -19137.376    240328.77     239180.8    239641.65 -0.091267459 
    9953    1482.9943    766.57656   -19903.952   -19137.376    240379.92    239206.32    239687.06 -0.098845291 
    9954    1482.2754    766.20492   -19903.581   -19137.376    240428.76    239230.54    239727.22   -0.1066085 
    9955    1481.5801     765.8455   -19903.221   -19137.376    240475.56    239255.85    239761.56  -0.11454314 
    9956    1480.9087    765.49846   -19902.874   -19137.376    240519.93    239282.46    239790.31   -0.1226363 
    9957    1480.2617    765.16402    -19902.54   -19137.376    240561.57     239310.2    239811.91  -0.13087537 
    9958    1479.6398    764.84255   -19902.218   -19137.376    240601.14    239339.15    239826.68  -0.13924724 
    9959    1479.0438    764.53446    -19901.91   -19137.376    240638.93    239369.11    239834.34  -0.14773982 
    9960    1478.4743    764.24009   -19901.616   -19137.376    240674.25    239400.95    239836.21  -0.15634209 
    9961    1477.9318    763.95969   -19901.335   -19137.376    240708.77    239433.92    239833.11  -0.16504275 
    9962    1477.4168    763.69345   -19901.069   -19137.376    240741.04     239467.3    239824.19  -0.17382903 
    9963    1476.9297    763.44166   -19900.817   -19137.375    240770.93     239502.6    239810.67  -0.18268735 
    9964    1476.4715    763.20482    -19900.58   -19137.375     240798.1    239539.45    239791.75  -0.19160548 
    9965    1476.0432    762.98344   -19900.359   -19137.375     240823.1    239578.84    239766.15  -0.20057156 
    9966    1475.6457    762.77795   -19900.153   -19137.375    240843.72    239619.84    239735.67  -0.20957413 
    9967    1475.2798    762.58881   -19899.964   -19137.375    240860.61    239661.63    239701.13  -0.21860131 
    9968     1474.947    762.41679   -19899.792   -19137.375    240874.57    239704.08    239661.35  -0.22763927 
    9969    1474.6492    762.26287   -19899.638   -19137.375    240884.39    239746.33    239616.95  -0.23667254 
    9970    1474.3886    762.12813   -19899.503   -19137.375    240891.33    239789.73    239569.36  -0.24568381 
    9971    1474.1672    762.01369   -19899.389   -19137.375    240895.07    239833.48    239518.48  -0.25465452 
    9972    1473.9873     761.9207   -19899.296   -19137.375    240895.31    239877.56    239464.48  -0.26356559 
    9973    1473.8513    761.85043   -19899.225   -19137.375    240891.97    239920.11    239407.54   -0.2723968 
    9974    1473.7621    761.80432   -19899.179   -19137.375    240885.53    239962.28    239347.01  -0.28112625 
    9975    1473.7227    761.78393   -19899.159   -19137.375    240873.14    240004.15    239283.04  -0.28973035 
    9976    1473.7361    761.79085   -19899.165   -19137.375     240857.3    240043.47     239217.4  -0.29818382 
    9977    1473.8052    761.82661   -19899.201   -19137.374    240837.48    240080.59    239150.61  -0.30646079 
    9978     1473.933    761.89265   -19899.267   -19137.374    240814.81    240115.58    239082.16  -0.31453542 
    9979     1474.122    761.99035   -19899.365   -19137.374    240788.96    240148.09    239012.91  -0.32238211 
    9980    1474.3747    762.12099   -19899.495   -19137.374    240758.72    240178.59    238942.07  -0.32997574 
    9981    1474.6934     762.2857    -19899.66   -19137.374    240725.44    240203.93    238870.44   -0.3372919 
    9982    1475.0798    762.48544   -19899.859   -19137.374    240688.92    240225.27    238799.11  -0.34430585 
    9983    1475.5356    762.72106   -19900.095   -19137.374    240649.62    240240.31    238728.05  -0.35099237 
    9984    1476.0619    762.99312   -19900.367   -19137.374    240606.81    240251.86    238654.63  -0.35732891 
    9985    1476.6592    763.30185   -19900.676   -19137.374    240561.51    240259.54    238582.21  -0.36329544 
    9986    1477.3272    763.64716   -19901.021   -19137.374    240514.32    240263.37     238512.5  -0.36887305 
    9987     1478.065    764.02855   -19901.402   -19137.374    240462.37    240263.66    238443.98  -0.37404408 
    9988    1478.8711    764.44519   -19901.819   -19137.374    240406.87    240259.17    238378.19  -0.37879221 
    9989    1479.7432    764.89604    -19902.27   -19137.374    240347.69    240247.77    238314.99  -0.38310434 
    9990    1480.6789    765.37966   -19902.754   -19137.374    240284.69    240231.27    238253.82  -0.38697094 
    9991    1481.6743     765.8942   -19903.268   -19137.374    240218.34    240210.04    238194.56  -0.39038568 
    9992    1482.7254    766.43752   -19903.812   -19137.374    240148.67    240184.43     238138.1  -0.39334565 
    9993    1483.8273    767.00715   -19904.382   -19137.375    240077.47    240155.71     238084.6  -0.39585055 
    9994    1484.9745    767.60015   -19904.975   -19137.375    240004.16     240122.4    238033.68  -0.39790222 
    9995    1486.1606    768.21325   -19905.588   -19137.375    239928.69    240085.56    237985.85  -0.39950471 
    9996    1487.3783    768.84269   -19906.218   -19137.375    239851.16    240045.99    237941.55  -0.40066399 
    9997    1488.6196    769.48433    -19906.86   -19137.376    239773.19    240004.29    237900.48  -0.40138716 
    9998    1489.8761    770.13384    -19907.51   -19137.376    239694.09    239960.57    237864.38  -0.40168191 
    9999    1491.1392    770.78675   -19908.163   -19137.376    239614.21    239916.01    237833.39   -0.4015572 
   10000       1492.4    771.43845   -19908.815   -19137.376    239532.99    239872.35     237807.1  -0.40102405 
Loop time of 16.9019 on 128 procs for 10000 steps with 4000 atoms

Performance: 51.119 ns/day, 0.469 hours/ns, 591.651 timesteps/s
100.0% CPU use with 128 MPI tasks x no OpenMP threads

MPI task timing breakdown:
Section |  min time  |  avg time  |  max time  |%varavg| %total
---------------------------------------------------------------
Pair    | 12.043     | 12.453     | 12.796     |   4.5 | 73.68
Neigh   | 0.016088   | 0.016968   | 0.017996   |   0.3 |  0.10
Comm    | 2.89       | 3.2715     | 3.6834     |   9.5 | 19.36
Output  | 0.96105    | 1.0919     | 1.2286     |   5.7 |  6.46
Modify  | 0.0037777  | 0.0041482  | 0.0047997  |   0.3 |  0.02
Other   |            | 0.06411    |            |       |  0.38

Nlocal:        31.2500 ave          38 max          23 min
Histogram: 3 0 11 7 26 21 32 12 13 3
Nghost:        362.469 ave         373 max         350 min
Histogram: 2 0 8 13 33 19 35 10 6 2
Neighs:         0.00000 ave           0 max           0 min
Histogram: 128 0 0 0 0 0 0 0 0 0
FullNghs:      1252.20 ave        1531 max         915 min
Histogram: 3 1 11 11 22 29 22 18 8 3

Total # of neighbors = 160282
Ave neighs/atom = 40.070500
Neighbor list builds = 287
Dangerous builds = 0
System init for write_data ...
Total wall time: 0:01:24
