LAMMPS data file via write_data, version 29 Sep 2021, timestep = 10000

4000 atoms
2 atom types

0 38.5 xlo xhi
0 38.5 ylo yhi
0 38.5 zlo zhi

Masses

1 106.42
2 107.868

Atoms # atomic

27 1 1.742792311508787 1.8579690363341146 3.879720183424196 0 0 0
1 1 0.28488477365261483 0.06939181224345173 0.14792418029766527 0 0 0
8 1 3.994503098036971 1.8091124759991721 2.1037201135885057 0 0 0
29 1 5.664149187413754 2.166781771309977 4.19744062495219 0 0 0
26 1 0.14190355924904322 0.09627418304656804 3.706106212531136 0 0 0
10 1 7.351714291707765 2.0737787180959164 2.032342187476963 0 0 0
4 1 0.16982524155332265 2.0972428747919976 1.8656575430785918 0 0 0
13 1 2.102608835988889 3.5543159291968736 1.7377235999931313 0 0 0
32 1 1.8875521488237752 5.65126599206935 3.8541570764006474 0 0 0
17 1 5.683519274104756 3.733940122201275 2.004238601813606 0 0 0
18 1 3.9612045928768502 5.838802339795112 1.9974292594855327 0 0 0
34 1 5.68085592005546 5.716484805692793 3.778768382809208 0 0 0
33 1 3.77939720000972 3.7749611259289004 3.6681839592979584 0 0 0
36 1 0.08950461589257686 7.590518801157869 3.798790129194566 0 0 0
28 1 3.8298106135699244 0.07196945503468118 4.149537691277855 0 0 0
20 1 7.589729065535817 5.87380185053746 1.9275319728323153 0 0 0
35 1 7.671718957289906 3.8562123274761633 3.9555378472787788 0 0 0
1012 1 9.488887457283884 4.02963231236155 1.938288272816565 0 0 0
24 1 5.990950340500521 7.823449149653673 1.8539774580099242 0 0 0
14 1 0.04121549300361019 5.908787657606954 1.6792829046578281 0 0 0
22 1 2.010463313791968 7.639749890942211 1.9004826376531192 0 0 0
38 1 7.553488588965324 7.813395783529623 3.8366460515240415 0 0 0
19 1 7.513508470001071 3.8140511936262613 0.24265294208606827 0 0 0
37 1 4.037210579395965 7.756042720672967 3.766988030692712 0 0 0
1002 1 9.538093324072833 0.13605513487147297 2.0189870864268147 0 0 0
6 1 5.735887960972723 1.9508294463487708 0.04329858045002507 0 0 0
16 1 5.903730957987589 5.695735670141016 0.054646722444339074 0 0 0
1031 1 9.357115577880478 5.667067197265424 3.888896815994681 0 0 0
1001 1 9.395413492182714 2.0424620162863425 0.06394140778940201 0 0 0
276 1 1.9434958905085058 9.580175511317844 3.983374964632466 0 0 0
31 1 0.1570670915192368 3.896494221962035 3.4364089778246227 0 0 0
23 1 3.8533197279409337 7.937389109557829 0.0031305546320661284 0 0 0
1026 1 9.297874559112214 1.9496181513801436 3.749691092686292 0 0 0
1021 1 9.28061658788129 7.60037698971852 1.9771656545216838 0 0 0
255 1 7.640636142084233 9.505523581552643 1.8879601588112664 0 0 0
9 1 7.870198677896158 0.015085232767023716 0.11185655819572081 0 0 0
15 1 3.982203070394941 3.841899376755865 0.00574112434974694 0 0 0
52 1 1.8953941839847377 2.021693607156613 7.789486634477604 0 0 0
39 1 1.7265356710522684 0.07507342942968447 5.961096343749959 0 0 0
45 1 0.18637196272144474 5.617490842810358 5.555720574102679 0 0 0
313 1 0.10640328940277054 9.536015019578057 9.484163491906662 0 0 0
42 1 4.030623076578598 1.893605638208624 5.934853274834022 0 0 0
54 1 5.8071700025629855 1.9092937110150963 7.965304910296684 0 0 0
62 1 3.9215308473823853 7.773667787128983 7.638005676378621 0 0 0
43 1 7.596839994944346 2.059487841574251 5.677705686963022 0 0 0
50 1 5.698098142430171 7.607186080005243 5.631446242967553 0 0 0
61 1 0.028482348510623444 7.458770360987833 7.5860287634908214 0 0 0
72 1 3.920961450242058 5.78228700480425 9.392091781427315 0 0 0
44 1 2.0114548822080036 3.6497439264871634 5.6717584210003125 0 0 0
57 1 1.8592520965485981 5.46201569363404 7.485705046422847 0 0 0
1063 1 9.566591402897645 0.08284900545217994 9.604732614163607 0 0 0
46 1 5.829090711490061 3.8634144534737107 6.020240052925097 0 0 0
47 1 3.9269600985531308 5.610256426654314 5.764200516653368 0 0 0
58 1 3.83703170644326 3.8182149032769517 7.827605310221772 0 0 0
59 1 5.877799475908848 5.724303404127632 7.775763781083366 0 0 0
73 1 7.751309030172113 5.763864454664714 9.53379848491983 0 0 0
48 1 7.783503811379509 5.576834447695746 5.766133411745745 0 0 0
60 1 7.849961677134374 3.7939842203998877 7.866255848248678 0 0 0
63 1 7.537867141745044 7.594136473827628 7.647459645483835 0 0 0
1051 1 9.569786173329113 1.7425365872645648 7.697432572572729 0 0 0
49 1 1.9180414625596485 7.621016580278229 5.562156622133605 0 0 0
301 1 1.8041556956893536 9.61670145116765 7.76404761077452 0 0 0
53 1 3.821144463507058 0.1722507475370381 7.71335636798138 0 0 0
1048 1 9.53666040449819 7.902536270365739 5.89100805628618 0 0 0
56 1 0.1879827837329376 3.8294196342832136 7.566489131009368 0 0 0
74 1 1.927980534518361 7.554742188402233 9.53312374857653 0 0 0
1056 1 9.614025143245609 5.8046235645679625 7.6451989112434635 0 0 0
41 1 5.619366208983222 0.039870187132582335 6.003772040125986 0 0 0
1073 1 9.433214256697937 7.463467541332708 9.57626044866359 0 0 0
64 1 1.9968457603327145 0.20751281964852514 9.550300510424144 0 0 0
1043 1 9.611885111657084 3.6931403575961563 5.742315043225516 0 0 0
77 1 2.044937807243106 2.0761494713539044 11.81504656475371 0 0 0
81 1 5.782446177743338 1.8707386525817646 11.712996727331092 0 0 0
83 1 3.885960467496551 2.0771907493189987 13.685827534555049 0 0 0
70 1 0.07440199436833242 5.539775967056395 9.636445539170316 0 0 0
69 1 1.9461182619895239 3.8479769349955704 9.819819070289936 0 0 0
85 1 7.802253335383271 1.958431617340724 13.543375111509466 0 0 0
86 1 0.07880535251779396 3.725914460125746 11.861173141214493 0 0 0
98 1 3.842078022098813 7.569058051533066 11.539921838256621 0 0 0
99 1 5.994144987430615 7.597665815370583 13.4411415038385 0 0 0
87 1 1.8146754046680373 5.778475232552213 11.682122658342015 0 0 0
88 1 1.941901268199602 4.007904643703983 13.772149904778104 0 0 0
97 1 2.113705531086707 7.756328406028217 13.306793694997646 0 0 0
92 1 5.73129338574905 3.795948768025937 13.594108409126019 0 0 0
93 1 3.8337701418839596 5.809182553599562 13.613954302482231 0 0 0
90 1 3.7291167564896632 3.9949549362074834 11.764086037190319 0 0 0
91 1 5.886451263219518 5.489692843003868 11.382445767770266 0 0 0
328 1 5.751406511961569 9.468299026028976 11.617482781464926 0 0 0
95 1 7.866775366547594 5.696771033532239 13.618093665586509 0 0 0
94 1 7.695519924198572 3.734829847072925 11.787832267909627 0 0 0
330 1 7.678611359867486 9.461599436413735 13.475849482113686 0 0 0
100 1 7.788071335056045 7.472764913605077 11.60289567384484 0 0 0
75 1 5.861821885161929 7.660015175629265 9.759184550929167 0 0 0
71 1 5.722806041894824 3.646095002585378 9.746866284325488 0 0 0
65 1 0.028060709767814128 1.893325612591938 9.656276201158622 0 0 0
66 1 5.757246732248899 0.17938428030351725 9.73500080863472 0 0 0
80 1 3.8116362904760703 0.28900653322344205 11.543253180377857 0 0 0
329 1 3.88457745500066 9.509702287327453 13.444539763792736 0 0 0
67 1 3.793073265321336 2.2127529781869173 9.822799388601222 0 0 0
327 1 0.25180639993314474 9.441141984084597 13.59147105346086 0 0 0
326 1 1.8530769660196382 9.524121025934946 11.397493651805776 0 0 0
78 1 2.2386257111531047 0.1648287102642271 13.620807881550096 0 0 0
314 1 3.902196387800619 9.576620803862147 9.757254305745938 0 0 0
68 1 7.897318741275037 1.847969568272606 9.71849093128762 0 0 0
79 1 0.00478068921866992 1.858056562965903 13.71873060045192 0 0 0
82 1 5.708330115258983 0.008539856378092736 13.452395970072807 0 0 0
102 1 1.8423478040890664 2.0898191246945226 15.390785958055401 0 0 0
376 1 1.9766146885410454 9.585993394640823 19.183958277601203 0 0 0
106 1 5.725835825730555 2.0493930731648184 15.88683849100072 0 0 0
108 1 3.8785914925747953 1.883822159805865 17.366835455715407 0 0 0
107 1 6.143813308321542 0.009317820726883034 17.43617160042788 0 0 0
352 1 0.02486214667974017 9.384243169802307 17.263684791539703 0 0 0
110 1 7.637237501513593 2.120590736929821 17.63452039940988 0 0 0
1121 1 9.525525859847912 7.690575451958857 17.470504912194055 0 0 0
112 1 1.7369157545551133 5.841933777749469 15.336726329403355 0 0 0
113 1 1.7319453551109583 4.09383952920902 17.350903855427443 0 0 0
355 1 7.729661188823075 9.61387489945367 17.374128751664458 0 0 0
115 1 3.9013101954175573 3.799690321059912 15.612328078736665 0 0 0
116 1 5.6860670532213105 5.602655181989797 15.47229843923382 0 0 0
117 1 5.63964849084382 4.167430017614727 17.51802200044082 0 0 0
118 1 3.679694394279729 6.052734058485416 17.441527848741273 0 0 0
103 1 2.0287616263389303 0.26815266721246045 17.18381828683432 0 0 0
119 1 7.690178503405184 3.8518710301698458 15.61981851167133 0 0 0
120 1 7.667652242303485 5.829915346436622 17.43483720856249 0 0 0
127 1 1.6227242892207234 2.1316267456116345 19.165513691568044 0 0 0
353 1 6.041022878779198 9.573926800371881 15.439387490475225 0 0 0
122 1 1.9511054290366487 7.709857600171853 17.47822840092128 0 0 0
1112 1 9.464952642746242 3.7568843084406027 17.596196189816943 0 0 0
124 1 5.850769366483465 7.613106432498441 17.546212360842027 0 0 0
123 1 4.176781685732181 7.721100646747851 15.392983599675269 0 0 0
125 1 7.739045214747886 7.688017336637119 15.573868965870574 0 0 0
109 1 7.722205309435742 0.1915430339623121 15.25796794747131 0 0 0
1111 1 9.585251888932294 5.725510030725485 15.508866844760224 0 0 0
351 1 2.1097843155323077 9.456334699722644 15.512606929721596 0 0 0
354 1 4.1014277615123484 9.516332389377409 17.38166520064983 0 0 0
130 1 3.7644749923316105 0.014277708888650213 19.12852198911134 0 0 0
152 1 1.8693778884318777 1.9000551669715713 22.94377462126317 0 0 0
137 1 2.106845357547086 5.886013607270473 19.364591585000987 0 0 0
129 1 0.1030586811793901 1.5286848667083945 21.2280662850099 0 0 0
378 1 6.275262050323581 9.568205605388703 19.525541938889212 0 0 0
133 1 3.463208792421549 1.8462819956184522 20.971220532865257 0 0 0
154 1 5.684301131792445 1.7400019950701073 22.842078061842496 0 0 0
163 1 7.792538044238317 7.610159693164449 23.53964401812011 0 0 0
1136 1 9.578623119857069 5.704126268989894 19.375878549516948 0 0 0
140 1 3.825514372388136 3.705168450511944 19.401674434678398 0 0 0
162 1 3.887327149549983 7.574963417093855 23.28687214278123 0 0 0
135 1 7.728923685626451 1.898795012722698 21.204609635266007 0 0 0
131 1 5.715561922492343 1.924486527645106 19.274216988957175 0 0 0
149 1 5.926258563582769 7.417137843571491 21.500547401567324 0 0 0
138 1 1.591272078983447 3.8911596119999734 21.149904310335476 0 0 0
157 1 2.0291283751284297 5.683089723511717 23.108239787887843 0 0 0
160 1 7.572821950709004 3.8883775133786593 22.97640369924316 0 0 0
143 1 3.7856329591657625 5.627932479179729 21.37262235059396 0 0 0
142 1 5.580076059048837 3.748521022283196 21.19625990891026 0 0 0
158 1 3.744789329339005 3.639787981486981 22.90379607909942 0 0 0
159 1 5.691475905165649 5.577054724553322 23.273130592433002 0 0 0
147 1 2.089411734120558 7.793350033454371 21.303370017621994 0 0 0
145 1 7.81801513721044 5.6188517475615045 21.330318721754338 0 0 0
155 1 7.601436934755144 0.11552912550422868 22.972623389770543 0 0 0
150 1 7.818829023741353 7.557810948541536 19.531123627602494 0 0 0
144 1 7.375895304263003 4.032703403783226 19.3410955479979 0 0 0
141 1 5.464232480829554 5.836214989770461 19.57931529116327 0 0 0
148 1 4.0604932987536 7.873031351038862 19.4717977198366 0 0 0
132 1 5.634831923959806 0.03335610291880789 21.054849050005817 0 0 0
161 1 0.025910150799629997 7.858781000481769 23.16970279789638 0 0 0
380 1 8.054049471672075 9.36164585761383 21.330906807954843 0 0 0
402 1 5.8120698181899115 9.613886906305096 23.00160265494657 0 0 0
379 1 3.8741079120400026 9.373190571084235 21.25557643860333 0 0 0
177 1 1.9151658315227398 1.7556540709860278 26.925092001479108 0 0 0
170 1 0.0005278121712885332 5.738543840805068 25.30542659491693 0 0 0
167 1 3.645889789601165 2.116720254831353 24.777335495863426 0 0 0
179 1 5.703198434123641 2.0456590373327175 26.828748798608398 0 0 0
186 1 0.15073626079638794 7.687491995228211 26.780767203936662 0 0 0
192 1 4.0074070884552535 1.9710410028109449 28.844675604044134 0 0 0
168 1 7.7242110181842945 2.1939640430463467 24.865229252005847 0 0 0
1181 1 9.431509345436703 5.8156668852358315 26.732392367964923 0 0 0
188 1 7.548636166975396 7.75830681668669 26.820453034406167 0 0 0
169 1 1.7580159357036087 3.8000228447567443 25.086104055424343 0 0 0
182 1 2.0227533837207234 5.8201178220962415 26.881541222516795 0 0 0
193 1 7.728098613016939 2.0963325298411983 28.658127404163032 0 0 0
184 1 5.851458996103727 5.794070403393042 26.857540578805505 0 0 0
183 1 3.7291786118340604 3.9749112148543433 27.086490495993942 0 0 0
171 1 5.646483093503348 3.7819341608936825 25.066124362159066 0 0 0
172 1 3.8768576571655915 5.544670730679775 24.949048542255444 0 0 0
173 1 7.70335767351574 5.54317547485049 24.98225077944422 0 0 0
185 1 7.630979143816234 3.804691906949414 26.92710484183198 0 0 0
413 1 0.13948967992458647 9.56620998451972 25.022682321278545 0 0 0
174 1 1.9759019121210413 7.704340249225681 25.056571598212415 0 0 0
176 1 0.18548854907058182 0.08022245911862441 27.111862109142486 0 0 0
181 1 0.01356753781080626 3.5738347122622005 27.066453136740353 0 0 0
175 1 5.581858303772066 7.747702520982946 25.209374550314138 0 0 0
187 1 3.917524221330302 7.724251563747535 27.108254539124093 0 0 0
440 1 7.559097030796866 9.568016522110351 28.86459208276549 0 0 0
198 1 7.656248619573924 5.9287147137941245 28.781861761527846 0 0 0
1198 1 9.545147160752787 7.970552959437144 28.81471991552617 0 0 0
426 1 1.9387601857830545 9.539067238290285 27.252524825882574 0 0 0
164 1 1.660316006355303 0.10322161256720305 25.09470628932065 0 0 0
1163 1 9.464662960442551 0.08095795340020455 24.986304345687767 0 0 0
195 1 0.0796693937081442 5.535795028842308 28.69914837980937 0 0 0
202 1 1.7888954985200267 1.9441065595585603 30.91735086939419 0 0 0
221 1 0.20969855220827843 7.709465436070637 31.16375053458841 0 0 0
225 1 7.682104793610446 7.856337583433626 30.663924015843392 0 0 0
214 1 0.07859297579966479 5.688306310507182 33.25334984647901 0 0 0
206 1 5.946622795886664 2.0779511256333403 30.57832429388163 0 0 0
208 1 3.917937204957195 1.9190505725571572 32.667362116297795 0 0 0
197 1 3.709938813399691 5.685236632214138 28.97071349309943 0 0 0
224 1 5.516976448119681 7.749893748101262 32.78888634299174 0 0 0
210 1 7.857523825390022 2.032527040477812 32.54947090073281 0 0 0
212 1 1.919705938254256 5.77613289116686 30.605604681076965 0 0 0
213 1 1.9274120809587858 3.946093845023585 32.69779837561484 0 0 0
196 1 5.868540028108675 3.922873296922909 28.913986665090338 0 0 0
215 1 3.698998249813999 3.6836265855139585 30.774901457519412 0 0 0
217 1 5.6802150992195655 3.595854148764982 32.5561188517278 0 0 0
216 1 5.741231220696812 5.843353016531452 30.89037437065192 0 0 0
218 1 3.8017103025849677 5.777896368094253 32.36854824884458 0 0 0
207 1 5.832575017074678 0.17869907457308332 32.540349460686215 0 0 0
1221 1 9.609595742257746 7.919584138076415 32.57095103663523 0 0 0
219 1 7.675842327028 4.101151042409374 30.81060449425377 0 0 0
220 1 7.8449257690891425 5.967814357746792 32.68111505164365 0 0 0
223 1 3.6295734591399724 7.948274108460929 30.834482074382464 0 0 0
1211 1 9.506054838392139 5.79095694116189 30.657433822565444 0 0 0
222 1 2.019812546588929 7.684073207725506 32.86664199953791 0 0 0
211 1 0.14421046851511324 3.742603534276797 30.85191950573573 0 0 0
1212 1 9.574167734081605 3.9331821547371035 32.59267667987016 0 0 0
199 1 1.759647803130046 7.781634435576154 29.01335334010736 0 0 0
200 1 5.597746752584083 7.770250365835453 29.050346262226366 0 0 0
194 1 1.9267476517489732 3.7693945007172354 28.911099652705687 0 0 0
227 1 2.1039235209325238 1.9432758112099455 34.52354636658663 0 0 0
246 1 0.06668922199154 7.651314986645591 34.713451661606165 0 0 0
231 1 5.851180767957716 1.9958852591359764 34.76446283990484 0 0 0
233 1 3.9960384994791633 1.933169158914995 36.38557305743499 0 0 0
21 1 0.06849518641158339 7.819872209858888 38.47469163201011 0 0 -1
235 1 7.665899225321777 1.9502547716114538 36.72426504920157 0 0 0
229 1 0.11978554431619483 1.8283722352973353 36.62772938576649 0 0 0
239 1 0.15664140230662255 5.681499994830798 36.566359257614764 0 0 0
250 1 7.979401850214843 7.917511408465195 34.63793689771254 0 0 0
237 1 2.0773423942459908 5.565580877110749 34.81659432827766 0 0 0
238 1 1.949983517575364 3.540304702663021 36.72255764696975 0 0 0
236 1 0.0960445332531897 3.726212457607948 34.96377434132952 0 0 0
240 1 4.12098036917601 3.839696211321971 34.68426519454864 0 0 0
241 1 5.808690663950882 5.888359941564755 34.734482239691 0 0 0
242 1 5.763370098681501 4.062467522492561 36.41109712220958 0 0 0
243 1 3.8821607941202894 5.804982235178466 36.6353052045184 0 0 0
244 1 7.6394343242833695 4.005429238084134 34.498390610564485 0 0 0
245 1 7.796396228625842 5.8540518434114555 36.42634220484433 0 0 0
232 1 5.880192936296525 0.14610452714810307 36.787309647109026 0 0 0
478 1 5.535101682508537 9.332052369728924 34.90012210872653 0 0 0
226 1 0.2398917365499208 0.19796080522274448 34.68673667322899 0 0 0
247 1 1.721695407575851 7.859886536432603 36.84276910258147 0 0 0
230 1 4.071666745627665 0.17649820794760304 34.611861486222715 0 0 0
248 1 3.2914146253925196 7.868711001410911 35.07957394451201 0 0 0
249 1 6.0089545477263515 7.620996448348087 36.81909371668271 0 0 0
234 1 7.712752421910553 0.09711294117575117 34.600082660032434 0 0 0
1226 1 9.530184704421316 2.047609983008882 34.695601693772694 0 0 0
25 1 7.808157938060256 7.78603472656331 38.41927088168332 0 0 -1
2 1 2.182149244242901 1.8228171954031065 38.484423379598915 0 0 -1
12 1 2.057211340541788 5.6405937951781056 38.42833962134086 0 0 -1
258 1 2.077151017887658 11.58764476123846 2.003917763641196 0 0 0
251 1 2.188368778085748 9.798436228360824 0.3883157793763477 0 0 0
269 1 0.31792883224480545 17.347893063197766 2.043719779377502 0 0 0
267 1 2.173470153817118 17.405192263481148 0.14714556965047382 0 0 0
277 1 5.801099344080089 9.836021852444707 3.979442605631265 0 0 0
262 1 5.87865456225172 11.638625903122882 2.164395987973809 0 0 0
280 1 3.8934376673015465 11.694072985039636 4.033391656243415 0 0 0
273 1 3.8814548539204936 17.296407063953453 1.8863161769794503 0 0 0
284 1 1.8422058421442717 17.412878677435714 4.002016410540987 0 0 0
282 1 7.762996450694544 11.523246002315886 4.009136730227921 0 0 0
530 1 7.979979511962553 19.10452489697551 4.077356065862698 0 0 0
275 1 7.683758708043119 17.383503920924003 1.7591440589161416 0 0 0
268 1 1.9741304896287335 15.670657838481963 2.0240502832089144 0 0 0
279 1 2.13687593948108 13.46706199274346 3.6251575484188896 0 0 0
526 1 0.08908999700387082 19.187325918407275 3.8385720157302683 0 0 0
272 1 5.78149210026959 15.489075352225923 1.896355050514792 0 0 0
281 1 5.934066708457658 13.702929077971634 3.875902850933954 0 0 0
285 1 4.000076729412073 15.495134668350936 3.744585896064259 0 0 0
263 1 4.009563364932145 13.586016633147706 1.9446572502991892 0 0 0
261 1 5.821733993474752 13.591413520529173 0.25302587919639064 0 0 0
257 1 1.9157651165345517 13.403292851741014 0.06748073835501534 0 0 0
287 1 7.925403954477659 15.543232037783941 3.945633188242523 0 0 0
265 1 7.758260428338296 13.36455889060008 1.9746197668337535 0 0 0
286 1 5.884342815605056 17.461967480262665 3.951814122913964 0 0 0
270 1 3.6967881410411416 15.316193585989161 0.21901502515486956 0 0 0
503 1 2.078791535529638 19.19409052425625 1.8974790313059156 0 0 0
254 1 4.180513153665085 10.09116610856423 1.818138804568793 0 0 0
274 1 7.637989569686891 15.310743051754768 0.3084987928567116 0 0 0
283 1 0.1618645039248821 15.427102321249965 3.878685213192736 0 0 0
528 1 3.6335387641854036 19.183462715607426 3.9667344454146996 0 0 0
266 1 0.0990691816537442 15.296150460285569 0.005854257022342531 0 0 0
259 1 0.08480409409220874 13.325096352260624 1.861045768566978 0 0 0
1257 1 9.488224030687181 11.455965901806877 1.8532379566270345 0 0 0
501 1 0.06084611974118411 19.055404286143535 0.024570071397883045 0 0 0
1267 1 9.594032288063522 15.201564898274452 1.9779044752064474 0 0 0
253 1 6.114949399334121 9.790649421941497 0.004497190611495228 0 0 0
291 1 2.1181418009956015 11.62197373905273 5.712587787302768 0 0 0
302 1 5.736200466886357 9.876885648047129 7.914676303119902 0 0 0
300 1 7.877523793752696 17.317198667291724 5.735993440504245 0 0 0
308 1 0.03311147446820006 15.096619546500204 7.711132795153293 0 0 0
293 1 5.716816778041835 11.811486745270903 6.005873778702107 0 0 0
305 1 3.852883301387182 11.569673892278953 7.618303582293376 0 0 0
539 1 1.813337518135741 19.15430836614869 5.791911149975895 0 0 0
303 1 0.17556234996020445 11.703415536655537 7.9087852411231205 0 0 0
307 1 7.85315255451882 11.657368686311942 7.5743486445286985 0 0 0
292 1 0.28551373131655755 13.630872763907197 5.751500950228121 0 0 0
1563 1 9.472909214175369 19.186715613837162 9.30552310382285 0 0 0
312 1 7.8589661520707494 15.423273927444368 7.735502499882774 0 0 0
296 1 1.9757243369636157 15.345812267329844 5.665327745623735 0 0 0
304 1 2.030150798185843 13.52398425552804 7.705701700083475 0 0 0
311 1 5.721563821456919 17.170075833604592 7.306884447328493 0 0 0
309 1 1.9289257423649113 17.194286392883036 7.524889233376255 0 0 0
299 1 3.9612729164087344 17.28587998565468 5.655943813088371 0 0 0
310 1 3.875085806851816 15.554548925583333 7.765911621205358 0 0 0
294 1 3.9598271825026963 13.76366690175543 5.893526122484621 0 0 0
298 1 5.904069782447577 15.271848302133836 5.7264809646932235 0 0 0
306 1 5.996875935211348 13.477117082294182 7.789684329216299 0 0 0
295 1 7.675488240736018 13.515487863548252 5.81522690937672 0 0 0
325 1 7.5451469388652574 17.4047034532321 9.325605771262863 0 0 0
553 1 3.792328837056187 19.01004427800302 7.637566334131904 0 0 0
1301 1 9.44030980919663 9.785288568220118 7.778911852458425 0 0 0
564 1 1.6189501513582314 18.90661898287512 9.46026170238933 0 0 0
290 1 7.40562238657314 9.743451053861726 5.9193341328762585 0 0 0
289 1 3.9152340728563777 9.785303732149249 5.851266811948488 0 0 0
566 1 5.4722987674707095 18.930116330645145 9.494506649973209 0 0 0
321 1 2.0028487422060595 15.33081176057316 9.429004360094641 0 0 0
541 1 5.760942447244501 19.232595227515734 5.841155405684616 0 0 0
320 1 7.872133567040365 13.329174926627209 9.572207782013848 0 0 0
333 1 1.9369316036803035 11.468259372314101 13.491816322991523 0 0 0
1331 1 9.59495408953244 13.453121949008432 11.539793406391857 0 0 0
584 1 7.798601036540061 19.046080375253492 11.316449948476885 0 0 0
335 1 3.924760110769054 11.387014401251003 11.715812736123784 0 0 0
337 1 5.834039993906882 11.18357072318943 13.582667907915123 0 0 0
339 1 7.744802934967359 11.290530018746487 11.621456916892736 0 0 0
348 1 3.851863882011791 17.09311452561281 13.708924749229102 0 0 0
341 1 0.05273548887378849 15.264212012766023 11.655861858710324 0 0 0
332 1 2.1691725572140537 13.252880847770315 11.300891373415043 0 0 0
343 1 1.7705320870580659 14.853761487907231 13.432458180363808 0 0 0
331 1 0.03170620736882085 11.398759101852031 11.585099242056017 0 0 0
347 1 5.989687929490314 15.365145434886925 13.570274647544547 0 0 0
336 1 5.8357985792106986 13.265137688200891 11.484502605988517 0 0 0
338 1 4.338419497516101 13.47609280889789 13.51338463898596 0 0 0
345 1 3.84305923275204 15.597551263304174 11.7424608164666 0 0 0
318 1 5.863207589221402 11.57049454273157 9.689370762601712 0 0 0
340 1 7.793068685976687 13.25596295288782 13.249677354145783 0 0 0
349 1 7.4810457437304505 15.134727804564763 11.551438082544353 0 0 0
350 1 7.6495071088128785 17.270849942494046 13.262435643400947 0 0 0
346 1 5.618835759800172 17.1641740560626 11.399128373952912 0 0 0
342 1 1.6487987638074186 17.114213469304115 11.624785578322504 0 0 0
578 1 2.109342821369244 19.066915657271192 13.595686461891336 0 0 0
1332 1 9.602450267878424 11.353697457900406 13.456692460304193 0 0 0
324 1 3.6463666449180088 17.18791036790574 9.742713404092864 0 0 0
315 1 7.817350962271382 9.631699553462884 9.666094651271962 0 0 0
580 1 4.059810592612532 19.08768300078183 11.668328811514353 0 0 0
319 1 4.016450069236711 13.260932543805028 9.695076616924478 0 0 0
316 1 2.2274220843892323 11.401050505691535 9.684519688199744 0 0 0
323 1 5.772809940015168 15.303853015156461 9.655941337880979 0 0 0
1321 1 9.618245916441106 15.500443910586892 9.86603245758344 0 0 0
358 1 2.116911026706964 11.316073597482633 17.302405293199236 0 0 0
382 1 2.0253486127941924 13.08205610993342 19.140961570833156 0 0 0
375 1 7.651103332168211 17.48822320843379 17.185109757500292 0 0 0
360 1 3.657346828022557 11.737239006691544 15.112272137551129 0 0 0
362 1 5.794963928756147 11.433207107426936 17.314685423963695 0 0 0
371 1 5.673301969250574 17.351600869741855 15.39446229567327 0 0 0
395 1 4.007603980890626 15.467551370586232 19.128328560770793 0 0 0
373 1 3.660133305627949 17.137132124312007 17.292672155893488 0 0 0
364 1 7.666791738235962 11.826127069737526 15.51832894586811 0 0 0
1391 1 9.473784400108402 17.413488626093578 18.8768624390134 0 0 0
357 1 1.8394786279458208 13.242253661316651 15.450345032386974 0 0 0
368 1 1.8540772071822065 15.230920335511517 17.189976051077103 0 0 0
389 1 7.910094705692503 11.667844887036908 19.060631190638144 0 0 0
391 1 0.018561074466298448 15.25196689604544 19.128694524324523 0 0 0
361 1 5.721159787544588 13.411477308435682 15.46941122174199 0 0 0
363 1 4.00650011151921 13.507975477584564 17.61638783735955 0 0 0
370 1 3.8239870248962315 15.178232884272134 15.548581820142704 0 0 0
372 1 5.838526404168952 15.462862756530885 17.206898252323604 0 0 0
392 1 1.8598456172952993 17.578548494408388 19.129306187163664 0 0 0
399 1 7.68185930254899 15.408952977457885 19.140444350386343 0 0 0
374 1 7.926760086852383 15.6601894774275 15.1002624449993 0 0 0
365 1 7.5690945445851945 13.561850359825671 17.21923897938655 0 0 0
367 1 1.850672807657817 17.11277691796529 15.108704836365675 0 0 0
1351 1 9.465375335990736 9.716136816718837 15.28660516337188 0 0 0
396 1 5.831114875002445 17.450674582375022 18.921223600454027 0 0 0
1367 1 9.53638013441069 15.324253996131924 17.28129270325003 0 0 0
605 1 3.797015276284184 19.013671904938473 15.45304222784423 0 0 0
385 1 4.0263535113317195 11.330761599622146 19.118308388830034 0 0 0
1356 1 9.530644532032891 13.285063907763735 15.45496965942386 0 0 0
603 1 1.8700095224920565 19.11678753794875 17.061358433416448 0 0 0
630 1 3.8036541523039546 18.95581489621613 19.03235148611225 0 0 0
383 1 2.2090029878896056 11.655561786132138 21.193526748050715 0 0 0
377 1 0.028837917326616447 9.8181833603689 21.13803570211486 0 0 0
386 1 5.811113386467716 13.444331291670956 19.257385297101948 0 0 0
401 1 2.0689895049289113 9.712164079009806 23.277710937039192 0 0 0
387 1 5.866788302621 11.640429897563038 21.177201579315334 0 0 0
405 1 3.769856505398975 11.750310976260144 22.969241555887482 0 0 0
407 1 7.897753418251512 11.622181213567785 22.918314075613456 0 0 0
632 1 5.984190932501374 19.09635216150688 20.970207110582397 0 0 0
1409 1 9.61457432657635 17.341705117042096 22.935979399805234 0 0 0
393 1 2.0162077847797173 15.575341547214794 21.060891207324406 0 0 0
404 1 2.111355734694351 13.695698568709696 23.14907350007801 0 0 0
408 1 0.24967844160880645 15.413260954034492 23.14508605131717 0 0 0
410 1 3.8310471454273665 15.43486961411388 23.114926000888936 0 0 0
388 1 3.8727162370018324 13.668747312011815 20.835207943543985 0 0 0
397 1 5.907817913554541 15.213372767137448 21.177337988858227 0 0 0
406 1 5.75781023958096 13.541345420421122 23.145966420676757 0 0 0
400 1 7.731835543287056 17.079892390317482 20.95105929563627 0 0 0
384 1 0.016976559361016202 13.319608969997061 20.950537595159727 0 0 0
390 1 7.759181647838755 13.441490518519837 21.175498361007552 0 0 0
412 1 7.556265473373558 15.436754165572214 23.186321833111883 0 0 0
1392 1 9.61149963663108 15.422757373661344 21.161799169509575 0 0 0
409 1 2.2050627465849524 17.491197129028798 23.09147805659096 0 0 0
394 1 0.14940126493036865 17.562674962112453 21.06802290342919 0 0 0
398 1 4.063045287133849 17.56059113243776 21.091936251401883 0 0 0
411 1 5.91284489053551 17.35331126631761 23.189692579984783 0 0 0
403 1 0.12772589966277575 11.446912980769763 23.244532921965668 0 0 0
1627 1 9.588728825099764 19.179668449355933 21.338748114508093 0 0 0
416 1 2.0835129183753964 11.673859334891036 25.151735049564973 0 0 0
433 1 0.16535853120433494 15.434278406429847 26.975875907609034 0 0 0
445 1 7.718469315713095 13.330370119784481 28.754329895670725 0 0 0
1429 1 9.421519521833305 13.634765443589973 26.996970081004342 0 0 0
449 1 4.1055472980519765 17.48469404458451 28.835333327922022 0 0 0
418 1 5.554300295757824 11.765287078137945 24.83438591887925 0 0 0
430 1 3.686057360236463 11.593814807228014 27.23480439149079 0 0 0
424 1 3.80442014680431 17.49051354192932 25.27086376023642 0 0 0
415 1 7.56385665690957 9.809896729870616 25.02204233398244 0 0 0
432 1 7.836984556492373 11.74511505548325 26.66406105835709 0 0 0
1446 1 9.477177065879967 15.277168201162304 28.852645310159243 0 0 0
427 1 5.724579359662337 9.8048814024686 27.047630384421854 0 0 0
421 1 1.9787375448228095 15.383516255245757 25.136535583972513 0 0 0
429 1 2.015947149309931 13.605745789983443 27.04247500266466 0 0 0
1426 1 9.27710539815885 9.693126617829055 27.013505300806774 0 0 0
1434 1 9.35305744550966 17.295057637665025 27.01918329919741 0 0 0
419 1 3.847029837692734 13.565836781825462 25.132231759924654 0 0 0
423 1 5.784140993477805 15.3097824365874 25.143108650599274 0 0 0
431 1 5.437440846620247 13.543138301517088 27.200988028819765 0 0 0
435 1 3.7317127373117778 15.55824281216835 27.20276705161342 0 0 0
437 1 7.437049479557396 15.419089865184795 27.063657243406407 0 0 0
420 1 7.897659544383101 13.566696944460798 24.801252055809815 0 0 0
425 1 7.791652339370561 17.443725450939407 24.685589881304015 0 0 0
434 1 1.9469815444693863 17.440152664152265 27.062911353518622 0 0 0
442 1 0.05302898469245492 13.468991251835664 28.796418285131725 0 0 0
436 1 5.816422712678031 17.38911501635885 26.73790828725396 0 0 0
414 1 3.9263828442058872 9.880996074360343 25.059452600930516 0 0 0
1421 1 9.48665001920232 15.537574300112524 25.08811578920193 0 0 0
422 1 0.11723386206812837 17.444389526629973 24.744383660808268 0 0 0