ITEM: TIMESTEP
10000
ITEM: NUMBER OF ATOMS
4000
ITEM: BOX BOUNDS pp pp pp
0.0000000000000000e+00 3.8500000000000000e+01
0.0000000000000000e+00 3.8500000000000000e+01
0.0000000000000000e+00 3.8500000000000000e+01
ITEM: ATOMS id type x y z
27 1 1.74279 1.85797 3.87972
1 1 0.284885 0.0693918 0.147924
8 1 3.9945 1.80911 2.10372
29 1 5.66415 2.16678 4.19744
26 1 0.141904 0.0962742 3.70611
10 1 7.35171 2.07378 2.03234
4 1 0.169825 2.09724 1.86566
13 1 2.10261 3.55432 1.73772
32 1 1.88755 5.65127 3.85416
17 1 5.68352 3.73394 2.00424
18 1 3.9612 5.8388 1.99743
34 1 5.68086 5.71648 3.77877
33 1 3.7794 3.77496 3.66818
36 1 0.0895046 7.59052 3.79879
28 1 3.82981 0.0719695 4.14954
20 1 7.58973 5.8738 1.92753
35 1 7.67172 3.85621 3.95554
1012 1 9.48889 4.02963 1.93829
24 1 5.99095 7.82345 1.85398
14 1 0.0412155 5.90879 1.67928
22 1 2.01046 7.63975 1.90048
38 1 7.55349 7.8134 3.83665
19 1 7.51351 3.81405 0.242653
37 1 4.03721 7.75604 3.76699
1002 1 9.53809 0.136055 2.01899
6 1 5.73589 1.95083 0.0432986
16 1 5.90373 5.69574 0.0546467
1031 1 9.35712 5.66707 3.8889
1001 1 9.39541 2.04246 0.0639414
276 1 1.9435 9.58018 3.98337
31 1 0.157067 3.89649 3.43641
23 1 3.85332 7.93739 0.00313055
1026 1 9.29787 1.94962 3.74969
1021 1 9.28062 7.60038 1.97717
255 1 7.64064 9.50552 1.88796
9 1 7.8702 0.0150852 0.111857
52 1 1.89539 2.02169 7.78949
39 1 1.72654 0.0750734 5.9611
45 1 0.186372 5.61749 5.55572
313 1 0.106403 9.53602 9.48416
42 1 4.03062 1.89361 5.93485
54 1 5.80717 1.90929 7.9653
62 1 3.92153 7.77367 7.63801
43 1 7.59684 2.05949 5.67771
50 1 5.6981 7.60719 5.63145
61 1 0.0284823 7.45877 7.58603
72 1 3.92096 5.78229 9.39209
44 1 2.01145 3.64974 5.67176
57 1 1.85925 5.46202 7.48571
1063 1 9.56659 0.082849 9.60473
46 1 5.82909 3.86341 6.02024
47 1 3.92696 5.61026 5.7642
58 1 3.83703 3.81821 7.82761
59 1 5.8778 5.7243 7.77576
73 1 7.75131 5.76386 9.5338
48 1 7.7835 5.57683 5.76613
60 1 7.84996 3.79398 7.86626
63 1 7.53787 7.59414 7.64746
1051 1 9.56979 1.74254 7.69743
49 1 1.91804 7.62102 5.56216
301 1 1.80416 9.6167 7.76405
53 1 3.82114 0.172251 7.71336
1048 1 9.53666 7.90254 5.89101
56 1 0.187983 3.82942 7.56649
74 1 1.92798 7.55474 9.53312
1056 1 9.61403 5.80462 7.6452
41 1 5.61937 0.0398702 6.00377
1073 1 9.43321 7.46347 9.57626
64 1 1.99685 0.207513 9.5503
77 1 2.04494 2.07615 11.815
81 1 5.78245 1.87074 11.713
83 1 3.88596 2.07719 13.6858
70 1 0.074402 5.53978 9.63645
69 1 1.94612 3.84798 9.81982
85 1 7.80225 1.95843 13.5434
86 1 0.0788054 3.72591 11.8612
98 1 3.84208 7.56906 11.5399
99 1 5.99414 7.59767 13.4411
87 1 1.81468 5.77848 11.6821
88 1 1.9419 4.0079 13.7721
97 1 2.11371 7.75633 13.3068
92 1 5.73129 3.79595 13.5941
93 1 3.83377 5.80918 13.614
90 1 3.72912 3.99495 11.7641
91 1 5.88645 5.48969 11.3824
328 1 5.75141 9.4683 11.6175
95 1 7.86678 5.69677 13.6181
94 1 7.69552 3.73483 11.7878
330 1 7.67861 9.4616 13.4758
100 1 7.78807 7.47276 11.6029
75 1 5.86182 7.66002 9.75918
71 1 5.72281 3.6461 9.74687
65 1 0.0280607 1.89333 9.65628
66 1 5.75725 0.179384 9.735
80 1 3.81164 0.289007 11.5433
329 1 3.88458 9.5097 13.4445
67 1 3.79307 2.21275 9.8228
327 1 0.251806 9.44114 13.5915
326 1 1.85308 9.52412 11.3975
78 1 2.23863 0.164829 13.6208
314 1 3.9022 9.57662 9.75725
68 1 7.89732 1.84797 9.71849
102 1 1.84235 2.08982 15.3908
376 1 1.97661 9.58599 19.184
106 1 5.72584 2.04939 15.8868
108 1 3.87859 1.88382 17.3668
107 1 6.14381 0.00931782 17.4362
352 1 0.0248621 9.38424 17.2637
110 1 7.63724 2.12059 17.6345
1121 1 9.52553 7.69058 17.4705
112 1 1.73692 5.84193 15.3367
113 1 1.73195 4.09384 17.3509
355 1 7.72966 9.61387 17.3741
115 1 3.90131 3.79969 15.6123
116 1 5.68607 5.60266 15.4723
117 1 5.63965 4.16743 17.518
118 1 3.67969 6.05273 17.4415
103 1 2.02876 0.268153 17.1838
119 1 7.69018 3.85187 15.6198
120 1 7.66765 5.82992 17.4348
127 1 1.62272 2.13163 19.1655
353 1 6.04102 9.57393 15.4394
122 1 1.95111 7.70986 17.4782
1112 1 9.46495 3.75688 17.5962
124 1 5.85077 7.61311 17.5462
123 1 4.17678 7.7211 15.393
125 1 7.73905 7.68802 15.5739
109 1 7.72221 0.191543 15.258
1111 1 9.58525 5.72551 15.5089
351 1 2.10978 9.45633 15.5126
354 1 4.10143 9.51633 17.3817
130 1 3.76447 0.0142777 19.1285
152 1 1.86938 1.90006 22.9438
137 1 2.10685 5.88601 19.3646
129 1 0.103059 1.52868 21.2281
156 1 -0.00685503 3.96653 23.2235
133 1 3.46321 1.84628 20.9712
154 1 5.6843 1.74 22.8421
163 1 7.79254 7.61016 23.5396
1136 1 9.57862 5.70413 19.3759
140 1 3.82551 3.70517 19.4017
162 1 3.88733 7.57496 23.2869
135 1 7.72892 1.8988 21.2046
131 1 5.71556 1.92449 19.2742
149 1 5.92626 7.41714 21.5005
138 1 1.59127 3.89116 21.1499
157 1 2.02913 5.68309 23.1082
160 1 7.57282 3.88838 22.9764
143 1 3.78563 5.62793 21.3726
142 1 5.58008 3.74852 21.1963
158 1 3.74479 3.63979 22.9038
159 1 5.69148 5.57705 23.2731
147 1 2.08941 7.79335 21.3034
145 1 7.81802 5.61885 21.3303
155 1 7.60144 0.115529 22.9726
150 1 7.81883 7.55781 19.5311
144 1 7.3759 4.0327 19.3411
141 1 5.46423 5.83621 19.5793
148 1 4.06049 7.87303 19.4718
132 1 5.63483 0.0333561 21.0548
161 1 0.0259102 7.85878 23.1697
380 1 8.05405 9.36165 21.3309
402 1 5.81207 9.61389 23.0016
379 1 3.87411 9.37319 21.2556
378 1 6.27526 9.56821 19.5255
177 1 1.91517 1.75565 26.9251
170 1 0.000527812 5.73854 25.3054
167 1 3.64589 2.11672 24.7773
179 1 5.7032 2.04566 26.8287
186 1 0.150736 7.68749 26.7808
192 1 4.00741 1.97104 28.8447
168 1 7.72421 2.19396 24.8652
1181 1 9.43151 5.81567 26.7324
188 1 7.54864 7.75831 26.8205
169 1 1.75802 3.80002 25.0861
182 1 2.02275 5.82012 26.8815
193 1 7.7281 2.09633 28.6581
184 1 5.85146 5.79407 26.8575
183 1 3.72918 3.97491 27.0865
171 1 5.64648 3.78193 25.0661
172 1 3.87686 5.54467 24.949
173 1 7.70336 5.54318 24.9823
185 1 7.63098 3.80469 26.9271
413 1 0.13949 9.56621 25.0227
174 1 1.9759 7.70434 25.0566
176 1 0.185489 0.0802225 27.1119
181 1 0.0135675 3.57383 27.0665
175 1 5.58186 7.7477 25.2094
187 1 3.91752 7.72425 27.1083
440 1 7.5591 9.56802 28.8646
198 1 7.65625 5.92871 28.7819
1198 1 9.54515 7.97055 28.8147
426 1 1.93876 9.53907 27.2525
164 1 1.66032 0.103222 25.0947
1163 1 9.46466 0.080958 24.9863
195 1 0.0796694 5.5358 28.6991
202 1 1.7889 1.94411 30.9174
221 1 0.209699 7.70947 31.1638
225 1 7.6821 7.85634 30.6639
214 1 0.078593 5.68831 33.2533
206 1 5.94662 2.07795 30.5783
208 1 3.91794 1.91905 32.6674
197 1 3.70994 5.68524 28.9707
224 1 5.51698 7.74989 32.7889
210 1 7.85752 2.03253 32.5495
212 1 1.91971 5.77613 30.6056
213 1 1.92741 3.94609 32.6978
1202 1 9.62626 0.0639517 32.7001
215 1 3.699 3.68363 30.7749
217 1 5.68022 3.59585 32.5561
216 1 5.74123 5.84335 30.8904
218 1 3.80171 5.7779 32.3685
207 1 5.83258 0.178699 32.5403
1221 1 9.6096 7.91958 32.571
219 1 7.67584 4.10115 30.8106
220 1 7.84493 5.96781 32.6811
223 1 3.62957 7.94827 30.8345
1211 1 9.50605 5.79096 30.6574
222 1 2.01981 7.68407 32.8666
211 1 0.14421 3.7426 30.8519
1212 1 9.57417 3.93318 32.5927
199 1 1.75965 7.78163 29.0134
200 1 5.59775 7.77025 29.0503
194 1 1.92675 3.76939 28.9111
196 1 5.86854 3.92287 28.914
227 1 2.10392 1.94328 34.5235
246 1 0.0666892 7.65131 34.7135
231 1 5.85118 1.99589 34.7645
233 1 3.99604 1.93317 36.3856
15 1 3.9822 3.8419 38.5057
235 1 7.6659 1.95025 36.7243
229 1 0.119786 1.82837 36.6277
239 1 0.156641 5.6815 36.5664
250 1 7.9794 7.91751 34.6379
237 1 2.07734 5.56558 34.8166
238 1 1.94998 3.5403 36.7226
236 1 0.0960445 3.72621 34.9638
240 1 4.12098 3.8397 34.6843
241 1 5.80869 5.88836 34.7345
242 1 5.76337 4.06247 36.4111
243 1 3.88216 5.80498 36.6353
244 1 7.63943 4.00543 34.4984
245 1 7.7964 5.85405 36.4263
232 1 5.88019 0.146105 36.7873
478 1 5.5351 9.33205 34.9001
226 1 0.239892 0.197961 34.6867
247 1 1.7217 7.85989 36.8428
230 1 4.07167 0.176498 34.6119
248 1 3.29141 7.86871 35.0796
249 1 6.00895 7.621 36.8191
234 1 7.71275 0.0971129 34.6001
1226 1 9.53018 2.04761 34.6956
25 1 7.80816 7.78603 38.4193
2 1 2.18215 1.82282 38.4844
12 1 2.05721 5.64059 38.4283
21 1 0.0684952 7.81987 38.4747
258 1 2.07715 11.5876 2.00392
251 1 2.18837 9.79844 0.388316
269 1 0.317929 17.3479 2.04372
267 1 2.17347 17.4052 0.147146
277 1 5.8011 9.83602 3.97944
262 1 5.87865 11.6386 2.1644
280 1 3.89344 11.6941 4.03339
273 1 3.88145 17.2964 1.88632
284 1 1.84221 17.4129 4.00202
282 1 7.763 11.5232 4.00914
530 1 7.97998 19.1045 4.07736
275 1 7.68376 17.3835 1.75914
268 1 1.97413 15.6707 2.02405
279 1 2.13688 13.4671 3.62516
526 1 0.08909 19.1873 3.83857
272 1 5.78149 15.4891 1.89636
281 1 5.93407 13.7029 3.8759
285 1 4.00008 15.4951 3.74459
263 1 4.00956 13.586 1.94466
261 1 5.82173 13.5914 0.253026
1276 1 9.62715 9.90464 4.10548
287 1 7.9254 15.5432 3.94563
265 1 7.75826 13.3646 1.97462
286 1 5.88434 17.462 3.95181
270 1 3.69679 15.3162 0.219015
503 1 2.07879 19.1941 1.89748
254 1 4.18051 10.0912 1.81814
274 1 7.63799 15.3107 0.308499
283 1 0.161865 15.4271 3.87869
528 1 3.63354 19.1835 3.96673
266 1 0.0990692 15.2962 0.00585426
259 1 0.0848041 13.3251 1.86105
1257 1 9.48822 11.456 1.85324
501 1 0.0608461 19.0554 0.0245701
1267 1 9.59403 15.2016 1.9779
257 1 1.91577 13.4033 0.0674807
291 1 2.11814 11.622 5.71259
302 1 5.7362 9.87689 7.91468
300 1 7.87752 17.3172 5.73599
308 1 0.0331115 15.0966 7.71113
293 1 5.71682 11.8115 6.00587
305 1 3.85288 11.5697 7.6183
539 1 1.81334 19.1543 5.79191
303 1 0.175562 11.7034 7.90879
307 1 7.85315 11.6574 7.57435
292 1 0.285514 13.6309 5.7515
1563 1 9.47291 19.1867 9.30552
312 1 7.85897 15.4233 7.7355
296 1 1.97572 15.3458 5.66533
304 1 2.03015 13.524 7.7057
311 1 5.72156 17.1701 7.30688
309 1 1.92893 17.1943 7.52489
299 1 3.96127 17.2859 5.65594
310 1 3.87509 15.5545 7.76591
294 1 3.95983 13.7637 5.89353
298 1 5.90407 15.2718 5.72648
306 1 5.99688 13.4771 7.78968
295 1 7.67549 13.5155 5.81523
325 1 7.54515 17.4047 9.32561
553 1 3.79233 19.01 7.63757
1301 1 9.44031 9.78529 7.77891
564 1 1.61895 18.9066 9.46026
290 1 7.40562 9.74345 5.91933
289 1 3.91523 9.7853 5.85127
566 1 5.4723 18.9301 9.49451
321 1 2.00285 15.3308 9.429
541 1 5.76094 19.2326 5.84116
320 1 7.87213 13.3292 9.57221
333 1 1.93693 11.4683 13.4918
1331 1 9.59495 13.4531 11.5398
584 1 7.7986 19.0461 11.3164
335 1 3.92476 11.387 11.7158
337 1 5.83404 11.1836 13.5827
339 1 7.7448 11.2905 11.6215
348 1 3.85186 17.0931 13.7089
341 1 0.0527355 15.2642 11.6559
332 1 2.16917 13.2529 11.3009
343 1 1.77053 14.8538 13.4325
331 1 0.0317062 11.3988 11.5851
347 1 5.98969 15.3651 13.5703
336 1 5.8358 13.2651 11.4845
338 1 4.33842 13.4761 13.5134
345 1 3.84306 15.5976 11.7425
318 1 5.86321 11.5705 9.68937
340 1 7.79307 13.256 13.2497
349 1 7.48105 15.1347 11.5514
350 1 7.64951 17.2708 13.2624
346 1 5.61884 17.1642 11.3991
342 1 1.6488 17.1142 11.6248
578 1 2.10934 19.0669 13.5957
1332 1 9.60245 11.3537 13.4567
324 1 3.64637 17.1879 9.74271
315 1 7.81735 9.6317 9.66609
580 1 4.05981 19.0877 11.6683
319 1 4.01645 13.2609 9.69508
316 1 2.22742 11.4011 9.68452
323 1 5.77281 15.3039 9.65594
358 1 2.11691 11.3161 17.3024
382 1 2.02535 13.0821 19.141
375 1 7.6511 17.4882 17.1851
360 1 3.65735 11.7372 15.1123
362 1 5.79496 11.4332 17.3147
371 1 5.6733 17.3516 15.3945
395 1 4.0076 15.4676 19.1283
373 1 3.66013 17.1371 17.2927
364 1 7.66679 11.8261 15.5183
1391 1 9.47378 17.4135 18.8769
357 1 1.83948 13.2423 15.4503
368 1 1.85408 15.2309 17.19
389 1 7.91009 11.6678 19.0606
391 1 0.0185611 15.252 19.1287
361 1 5.72116 13.4115 15.4694
363 1 4.0065 13.508 17.6164
370 1 3.82399 15.1782 15.5486
372 1 5.83853 15.4629 17.2069
1366 1 9.635 17.3302 15.3647
399 1 7.68186 15.409 19.1404
374 1 7.92676 15.6602 15.1003
365 1 7.56909 13.5619 17.2192
367 1 1.85067 17.1128 15.1087
1351 1 9.46538 9.71614 15.2866
396 1 5.83111 17.4507 18.9212
1367 1 9.53638 15.3243 17.2813
605 1 3.79702 19.0137 15.453
385 1 4.02635 11.3308 19.1183
1356 1 9.53064 13.2851 15.455
603 1 1.87001 19.1168 17.0614
630 1 3.80365 18.9558 19.0324
392 1 1.85985 17.5785 19.1293
383 1 2.209 11.6556 21.1935
377 1 0.0288379 9.81818 21.138
386 1 5.81111 13.4443 19.2574
401 1 2.06899 9.71216 23.2777
387 1 5.86679 11.6404 21.1772
405 1 3.76986 11.7503 22.9692
407 1 7.89775 11.6222 22.9183
632 1 5.98419 19.0964 20.9702
1409 1 9.61457 17.3417 22.936
393 1 2.01621 15.5753 21.0609
404 1 2.11136 13.6957 23.1491
408 1 0.249678 15.4133 23.1451
410 1 3.83105 15.4349 23.1149
388 1 3.87272 13.6687 20.8352
397 1 5.90782 15.2134 21.1773
406 1 5.75781 13.5413 23.146
400 1 7.73184 17.0799 20.9511
384 1 0.0169766 13.3196 20.9505
390 1 7.75918 13.4415 21.1755
412 1 7.55627 15.4368 23.1863
1392 1 9.6115 15.4228 21.1618
409 1 2.20506 17.4912 23.0915
394 1 0.149401 17.5627 21.068
398 1 4.06305 17.5606 21.0919
411 1 5.91284 17.3533 23.1897
403 1 0.127726 11.4469 23.2445
1627 1 9.58873 19.1797 21.3387
416 1 2.08351 11.6739 25.1517
433 1 0.165359 15.4343 26.9759
445 1 7.71847 13.3304 28.7543
1429 1 9.42152 13.6348 26.997
449 1 4.10555 17.4847 28.8353
418 1 5.5543 11.7653 24.8344
430 1 3.68606 11.5938 27.2348
424 1 3.80442 17.4905 25.2709
415 1 7.56386 9.8099 25.022
432 1 7.83698 11.7451 26.6641
1446 1 9.47718 15.2772 28.8526
427 1 5.72458 9.80488 27.0476
421 1 1.97874 15.3835 25.1365
429 1 2.01595 13.6057 27.0425
1426 1 9.27711 9.69313 27.0135
1434 1 9.35306 17.2951 27.0192
419 1 3.84703 13.5658 25.1322
423 1 5.78414 15.3098 25.1431
431 1 5.43744 13.5431 27.201
435 1 3.73171 15.5582 27.2028
437 1 7.43705 15.4191 27.0637
420 1 7.89766 13.5667 24.8013
425 1 7.79165 17.4437 24.6856
434 1 1.94698 17.4402 27.0629
442 1 0.053029 13.469 28.7964
436 1 5.81642 17.3891 26.7379
414 1 3.92638 9.881 25.0595
1421 1 9.48665 15.5376 25.0881
422 1 0.117234 17.4444 24.7444
428 1 0.207578 11.4302 27.0252
447 1 0.211646 17.3158 28.874
448 1 5.57535 15.368 28.8642
458 1 1.7943 11.7743 32.7919
439 1 3.78096 9.75667 28.9821
1457 1 9.40243 11.6721 32.6946
444 1 3.67624 13.3515 29.1947
453 1 5.74162 9.73759 30.6923
460 1 3.99376 11.7158 30.8715
462 1 5.84933 11.6972 32.8389
455 1 7.3218 9.63066 32.8433
464 1 7.50172 11.719 30.9408
475 1 7.65646 17.2406 32.7318
446 1 1.89366 15.5132 29.0734
457 1 1.73696 13.5469 30.8272
468 1 1.86082 15.3238 32.9279
473 1 3.8313 17.2321 32.6383
467 1 2.07416 17.5112 31.0101
470 1 3.66905 15.513 30.821
472 1 5.72235 15.5945 32.6531
463 1 3.80319 13.6524 33.0739
461 1 5.75254 13.5035 30.9578
703 1 2.07216 19.2161 32.8014
471 1 5.73342 17.4076 30.558
1466 1 9.52562 17.397 30.7947
474 1 7.82204 15.4124 30.7258
465 1 7.62561 13.681 32.8255
441 1 1.88067 11.6049 29.1411
1456 1 9.39629 13.2875 30.5912
454 1 3.75588 9.70558 32.7611
707 1 5.77254 19.002 33.0263
451 1 1.82669 9.86018 30.9925
450 1 7.47365 17.3806 28.9097
1451 1 9.44831 9.7191 30.8658
438 1 0.034663 9.76305 29.0419
443 1 6.027 11.6484 28.9188
1441 1 9.46035 11.4966 28.9095
483 1 2.04499 11.4235 36.7237
1266 1 9.5398 17.4087 38.4271
492 1 1.88698 17.2775 34.7853
728 1 1.85762 19.2229 36.7709
490 1 7.88765 13.6245 36.5483
500 1 7.82246 17.3499 36.4881
485 1 3.90177 11.4906 34.5968
487 1 5.94649 11.6765 36.5371
1476 1 9.4939 9.92869 34.6307
489 1 7.64901 11.9165 34.7606
498 1 3.76699 17.1647 36.763
480 1 7.59986 9.80838 36.5504
499 1 7.83623 15.611 34.5264
482 1 1.81526 13.4709 34.8113
493 1 1.99611 15.2158 36.8212
730 1 3.91602 19.1628 34.5585
479 1 3.98743 9.80735 36.681
271 1 5.84064 17.3416 38.4184
486 1 5.73297 13.6588 34.7472
488 1 4.09624 13.5898 36.7572
495 1 3.65735 15.5378 34.7442
497 1 5.94294 15.5435 36.7561
496 1 5.81263 17.0437 34.7021
264 1 7.72022 11.7272 38.4559
491 1 0.0036014 15.5355 34.7508
476 1 1.86678 9.69884 34.4496
494 1 -0.00183926 17.1998 36.7448
1491 1 9.41677 17.4969 34.5054
726 1 0.0377511 19.0467 34.7265
732 1 5.56172 19.2207 36.5011
253 1 6.11495 9.79065 38.5045
260 1 4.00495 11.5884 38.3441
527 1 1.69434 21.2053 3.5523
512 1 1.69858 24.8874 0.172412
507 1 5.73286 19.3176 2.10702
1526 1 9.57307 21.186 3.97873
523 1 3.75062 26.8265 0.130922
755 1 7.55427 28.6597 1.89387
508 1 4.01586 21.0952 2.16162
529 1 5.72073 21.0774 4.09116
754 1 3.89867 28.8186 2.00471
502 1 1.76846 21.1226 0.0186376
510 1 7.92289 21.2156 2.10775
525 1 7.67564 26.7855 0.224629
1512 1 9.57567 23.3658 1.68685
513 1 1.81581 22.8765 1.90581
532 1 1.91097 25.0223 3.77576
537 1 3.85898 27.0811 3.95685
533 1 3.94574 23.1423 3.74671
518 1 3.74468 25.0468 1.74351
517 1 5.86034 23.0712 1.93149
534 1 5.58587 25.2208 4.13359
538 1 7.71574 27.1275 3.9969
524 1 5.65235 26.9628 2.04474
522 1 1.88865 27.045 1.93345
535 1 7.45619 23.1908 3.98336
520 1 7.85448 25.0033 2.2829
751 1 2.1022 28.8749 0.00724597
509 1 7.37862 19.3367 -0.00714878
506 1 5.71083 21.292 0.253098
777 1 5.79569 28.7855 3.74033
1502 1 9.49449 19.3381 1.73821
1511 1 9.61512 25.1223 0.0393683
1751 1 9.58146 28.5584 0.0512758
515 1 3.66481 22.8895 0.0727713
519 1 7.44085 23.1046 0.0384953
552 1 2.09672 21.1817 7.62152
565 1 0.135042 21.168 9.60365
556 1 0.0206075 23.0502 7.77494
1556 1 9.62129 25.0115 7.7355
802 1 5.72989 28.6392 7.59789
542 1 3.94765 21.2546 5.73371
554 1 5.60957 21.0883 7.75123
789 1 3.74789 28.8077 5.83007
1551 1 9.5105 20.9488 7.46571
543 1 7.42461 21.2954 5.84623
540 1 0.0860238 21.1019 5.68228
550 1 5.70333 26.9493 5.89099
570 1 0.0777072 25.0966 9.38616
544 1 2.01686 23.1012 5.61536
557 1 2.01594 25.0764 7.60782
563 1 7.75372 27.0061 7.63661
549 1 1.9536 27.0471 5.86417
546 1 5.79761 23.1875 6.16607
547 1 3.8522 24.9422 5.77317
558 1 3.7042 23.0674 7.77628
559 1 5.91311 25.1066 7.76053
562 1 3.92116 26.7508 7.6723
560 1 7.82771 23.031 7.8022
548 1 7.70526 24.8796 5.6504
545 1 0.215782 24.8923 5.71792
801 1 1.9427 28.6628 7.64466
571 1 5.85017 23.1858 9.35334
1548 1 9.4793 27.1069 5.66889
573 1 7.7706 25.047 9.55166
1543 1 9.6121 23.0876 5.7821
555 1 7.48595 19.3333 7.45462
814 1 3.80432 28.738 9.60187
569 1 1.90451 23.024 9.45169
577 1 1.89985 20.742 11.5932
600 1 7.83849 27.0058 11.8154
572 1 3.97915 25.2125 9.72352
581 1 5.99153 20.9748 11.7532
583 1 3.83201 21.0355 13.5733
1576 1 9.33681 20.8721 11.4836
1596 1 9.61522 26.7632 13.4894
1586 1 9.57677 24.983 11.3818
585 1 7.73082 21.3029 13.5753
586 1 0.149489 23.0284 11.7493
587 1 1.94017 25.0642 11.3838
588 1 1.90722 22.9761 13.2944
574 1 1.83324 26.9842 9.70197
591 1 5.82292 24.961 11.5769
593 1 3.89873 25.1079 13.3886
592 1 5.74973 23.0573 13.279
590 1 3.74525 23.0839 11.5931
594 1 7.71579 23.0016 11.6842
595 1 7.59146 24.8359 13.5969
597 1 1.85334 27.1756 13.311
1568 1 9.54001 22.905 9.64371
815 1 7.73302 28.7914 9.80958
568 1 7.47269 21.2048 9.77001
599 1 5.96401 27.0198 13.5298
598 1 4.10516 27.1073 11.6975
582 1 5.92069 19.3891 13.5908
575 1 6.06853 26.8831 9.65386
830 1 7.77196 28.7779 13.6268
567 1 3.88234 21.2022 9.71319
602 1 1.79024 20.9522 15.332
621 1 -2.1167e-06 27.0203 15.1654
650 1 7.43756 26.9407 19.1928
876 1 1.66865 28.7685 19.1124
636 1 0.017913 23.1596 19.2679
606 1 5.70152 21.1886 15.3831
608 1 3.68606 21.0712 17.4465
622 1 1.72354 27.0829 17.2331
610 1 7.74205 21.3734 17.4069
623 1 3.75128 26.8663 15.1651
614 1 0.0511204 24.8605 16.9788
612 1 1.90674 25.2251 15.1344
613 1 1.80629 22.8765 16.9568
625 1 7.51722 26.8055 15.2915
620 1 7.60022 25.1319 17.414
611 1 0.181037 23.1709 15.1727
615 1 4.02869 22.9831 15.2157
616 1 5.79602 24.8725 15.5297
617 1 5.65216 23.2032 17.3652
618 1 3.57029 24.9617 17.2176
624 1 5.55645 27.1717 17.1847
609 1 7.73172 19.2597 15.5092
619 1 7.74522 23.1495 15.5185
1601 1 9.50421 21.3282 15.5155
627 1 1.47348 21.048 19.2198
648 1 3.62986 26.9297 19.08
607 1 5.69412 19.4411 17.2434
1612 1 9.41802 23.1766 17.6395
1876 1 9.39342 28.8815 19.1296
855 1 7.57427 28.7079 17.3587
1851 1 9.54691 28.7569 15.6116
1611 1 9.45315 25.025 15.6628
641 1 5.4284 25.0969 18.9735
634 1 7.8798 19.265 19.1182
631 1 5.75876 21.2278 19.2564
637 1 1.73203 25.0703 18.9308
1621 1 9.53988 26.9149 17.5504
851 1 2.04214 28.8517 15.3017
652 1 1.9428 21.6302 23.0456
649 1 5.57503 27.0399 20.9013
633 1 3.60989 20.9957 20.5952
654 1 5.81166 21.3579 22.8728
663 1 7.66027 27.1508 23.0109
628 1 1.92387 19.3275 21.2596
635 1 7.77184 21.1453 21.165
901 1 1.90621 28.7773 23.1449
638 1 1.6567 23.2352 20.9113
657 1 1.94581 24.7877 22.9584
902 1 5.76587 28.853 22.9715
643 1 3.63062 25.0818 20.851
642 1 5.55335 23.1685 21.0668
659 1 5.83754 24.9865 22.9555
658 1 3.91692 23.1921 22.9933
645 1 7.53995 25.113 21.0214
660 1 7.4966 23.0655 22.9559
644 1 7.60076 23.2524 19.4263
647 1 1.81513 26.9698 21.0368
880 1 7.59123 28.6254 21.0318
653 1 3.98327 19.6153 22.7118
662 1 3.95558 26.5324 22.9049
639 1 0.222216 25.0858 21.2766
655 1 7.77251 19.4071 23.0199
1656 1 9.61787 25.352 23.0647
879 1 3.85636 28.7723 21.1303
877 1 0.0886307 28.7522 21.1308
640 1 3.70357 23.0473 19.2688
677 1 1.93632 21.4927 26.9424
680 1 7.72532 19.2549 26.817
675 1 5.90853 27.0946 24.916
678 1 4.08245 19.4052 26.8679
667 1 3.8063 21.2083 24.8028
679 1 5.85864 21.3004 26.8899
666 1 6.03618 19.3612 24.913
670 1 0.353953 25.1645 24.8352
668 1 7.67343 21.3584 24.849
687 1 3.91404 26.8376 27.0661
669 1 2.02692 23.0398 25.0436
682 1 1.86978 25.0278 27.1162
1673 1 9.5967 27.0995 25.1977
1681 1 9.40679 24.9193 27.2266
671 1 5.88272 23.1087 24.8286
672 1 3.81627 24.935 24.835
683 1 4.09252 23.1314 26.9763
684 1 5.84894 25.2262 26.6875
691 1 5.89798 19.4058 28.79
688 1 7.60267 27.163 27.0425
673 1 7.67608 25.3687 24.7049
685 1 7.70758 23.0729 26.5761
693 1 7.88799 21.067 28.51
674 1 1.97431 27.1725 25.0226
676 1 0.288028 19.3919 26.9742
664 1 1.88134 19.6894 24.8699
1693 1 9.27387 22.9584 28.7941
681 1 0.131913 23.3864 27.0742
914 1 3.99949 28.6639 25.0973
697 1 3.98367 24.9266 28.7359
665 1 0.0507737 21.3525 25.1495
699 1 1.9204 27.043 28.8149
1676 1 9.57823 21.4378 26.6197
702 1 2.1057 21.1268 31.0373
723 1 4.01478 26.7704 30.8212
709 1 7.64863 19.5665 30.9238
706 1 5.60328 21.2802 30.9963
708 1 3.664 21.2308 33.0052
1698 1 9.50939 26.8924 28.908
710 1 7.541 21.2176 32.9655
705 1 4.20794 19.2803 30.7241
689 1 1.88977 19.4049 28.952
698 1 7.60214 25.0629 28.9093
724 1 5.70459 27.1469 32.8084
712 1 1.77544 25.1108 30.7051
713 1 1.82708 23.2356 32.5369
725 1 7.68146 27.0458 30.9609
717 1 5.53885 23.2353 32.812
716 1 5.91952 25.0844 30.819
718 1 3.74125 25.0616 32.7285
715 1 3.9852 23.1818 30.7579
720 1 7.60789 24.9904 32.7576
719 1 7.48197 23.0039 31.1493
694 1 1.93386 23.1833 29.2906
722 1 2.02839 26.8838 32.4444
1721 1 9.53199 26.8784 32.7558
1711 1 9.36755 25.1025 30.8063
700 1 5.68447 27.0663 28.8832
721 1 0.00183002 27.0765 30.7672
1701 1 9.37642 21.3457 30.6614
1712 1 9.57342 23.0401 32.6602
951 1 1.78941 28.8412 30.7186
692 1 3.70771 21.302 29.0622
696 1 5.96809 23.0656 29.0382
727 1 1.8223 21.0756 34.7789
979 1 3.64063 28.8701 36.5493
734 1 7.4173 19.2946 34.7432
750 1 7.52598 26.9236 34.6674
731 1 5.6275 21.4014 34.6337
733 1 3.79582 21.112 36.5442
976 1 1.8792 28.8248 34.6329
977 1 -0.0119068 28.753 36.581
735 1 7.48027 21.2722 36.4689
748 1 3.72348 26.9695 34.578
1737 1 9.34157 23.2203 36.6101
980 1 7.37658 28.7727 36.7221
737 1 1.78539 25.0302 34.8101
738 1 1.87858 23.0094 36.4531
1727 1 9.56717 19.3275 36.4192
746 1 0.00521771 26.9771 34.7001
740 1 3.55747 23.2104 34.6135
741 1 5.69803 25.0678 34.6159
742 1 5.43276 23.0991 36.339
743 1 3.54931 25.0919 36.6705
1501 1 9.37429 21.231 38.3462
745 1 7.70484 25.0735 36.7565
744 1 7.67155 23.3076 34.6356
747 1 1.85802 26.8853 36.5153
753 1 5.4085 28.8474 38.4345
749 1 5.72781 26.8104 36.5755
516 1 5.56649 24.8461 38.4272
505 1 3.99667 19.3643 38.4778
758 1 1.91487 30.9611 1.9571
757 1 1.84384 32.8405 0.0108335
762 1 5.70133 30.8154 1.79391
780 1 3.71154 30.7704 3.90577
1776 1 9.59746 28.967 3.94973
782 1 7.50097 30.7185 3.87156
1779 1 9.53426 32.7119 3.8413
768 1 1.85134 34.6557 1.99335
779 1 2.05712 32.7469 3.95632
7 1 5.92897 38.3378 2.29501
781 1 5.958 32.6991 3.99305
772 1 5.8165 34.2157 2.0254
763 1 3.83918 32.7795 1.97879
785 1 3.78208 34.7415 4.00898
775 1 7.82048 36.6951 2.04201
787 1 7.5746 34.688 3.86871
765 1 7.8061 32.5649 1.78979
760 1 3.80555 30.9511 0.174486
786 1 5.70467 36.6494 4.21298
783 1 0.0323868 34.7113 3.99657
784 1 1.78965 36.7005 4.2233
30 1 7.83477 38.4623 4.30579
1757 1 9.54575 30.8812 1.94099
773 1 3.83569 36.3695 2.10163
764 1 7.49819 30.4734 0.0516025
1767 1 9.50359 34.6197 2.26266
778 1 0.0903048 30.8215 3.83554
769 1 -0.000193092 36.6345 1.97121
776 1 1.80653 29.1169 3.69663
771 1 5.88097 36.6203 0.195177
3 1 1.89572 38.3684 2.03195
5 1 4.09322 38.4133 0.0394747
767 1 2.15732 36.432 0.0258794
791 1 1.87303 30.5881 5.88504
816 1 1.71811 30.5809 9.36319
797 1 0.0124396 36.675 6.22237
808 1 0.0915358 34.6081 7.99141
793 1 5.78324 30.7041 5.78418
805 1 3.94778 30.7028 7.85074
807 1 7.67368 30.5305 7.93303
824 1 3.68483 36.6261 9.64059
800 1 7.76712 36.4968 6.00681
796 1 1.79667 34.5578 6.02222
804 1 1.93461 32.5694 7.79583
822 1 0.142643 36.5707 9.55551
794 1 3.91464 32.9801 5.83325
798 1 5.94429 34.5953 5.8436
806 1 5.86247 32.5379 7.88035
810 1 4.15128 34.5758 7.85076
812 1 7.79522 34.6693 7.85859
795 1 7.70532 32.9822 5.80709
790 1 7.29691 28.946 5.84745
809 1 2.02848 36.5025 7.85727
1804 1 9.372 32.6704 7.71035
1801 1 9.51078 28.899 7.78715
811 1 5.71943 36.8654 7.92264
799 1 3.7961 36.485 6.04471
792 1 0.000219746 32.7436 5.91793
1791 1 9.43568 30.8864 5.91381
55 1 7.63273 38.3374 7.76305
818 1 5.85127 30.4971 9.60027
833 1 1.9763 30.7372 13.3277
820 1 7.78595 32.8585 9.70891
835 1 3.91086 30.682 11.3535
837 1 5.8044 30.8475 13.3262
840 1 7.49134 32.6882 13.4018
846 1 5.75734 36.6631 11.5041
829 1 4.05133 29.0174 13.5666
1832 1 9.25594 30.7211 13.2786
839 1 7.74961 30.8919 11.3628
828 1 5.99777 28.9071 11.6936
826 1 1.93851 28.9471 11.3962
842 1 2.06095 36.7162 11.6966
832 1 2.08377 32.5706 11.5331
843 1 1.93642 34.7557 13.5254
821 1 2.00094 34.4859 9.68862
825 1 7.67919 36.8275 9.67795
838 1 3.62527 32.6838 13.4989
845 1 3.72598 34.6555 11.4192
836 1 5.67805 32.7639 11.5166
847 1 5.96321 34.737 13.3273
850 1 7.9175 36.638 13.6487
823 1 5.92486 34.6614 9.67544
849 1 7.74445 34.6317 11.6161
848 1 3.87574 36.5036 13.388
82 1 5.70833 38.5085 13.4524
834 1 0.141491 32.7221 13.4401
76 1 0.0665855 38.2877 11.8188
841 1 0.155284 34.6732 11.4911
844 1 0.101229 36.5187 13.649
84 1 7.75126 38.4484 11.8114
819 1 4.03258 32.5527 9.68009
858 1 1.99715 30.8253 17.1392
1102 1 9.52003 38.3491 17.6693
853 1 5.65498 28.9786 15.6205
860 1 3.9114 30.892 15.3145
862 1 5.45971 30.9102 17.4887
869 1 0.0536456 36.3287 17.1429
1867 1 9.42426 34.6468 17.2658
1856 1 9.61287 32.4062 15.1973
892 1 1.91884 36.5008 18.9286
864 1 7.3453 30.8931 15.5651
875 1 7.71352 36.4626 17.4551
873 1 4.19889 36.5995 17.3131
854 1 3.80422 28.9157 17.0971
857 1 1.83704 32.7122 15.3157
868 1 1.96045 34.5208 17.3298
867 1 2.09182 36.6219 15.2187
871 1 5.81233 36.5671 15.3686
872 1 5.91209 34.5319 17.3508
861 1 5.81376 32.9158 15.4876
863 1 3.82451 32.7968 17.3502
870 1 3.96187 34.6593 15.4119
865 1 7.61548 32.778 17.2976
874 1 8.09652 34.5406 15.3305
859 1 0.156229 32.8388 17.4298
889 1 7.6431 30.6035 19.1265
105 1 4.03498 38.3216 15.4146
1857 1 9.46826 31.0615 17.3711
883 1 2.00893 30.6364 21.3042
884 1 0.163175 32.8865 21.1755
887 1 5.82882 30.6098 21.538
905 1 3.66052 30.8226 23.2241
891 1 0.0921059 34.6033 19.3321
1909 1 9.46094 36.8142 23.1611
907 1 7.84699 30.6936 23.2198
900 1 8.1193 36.3301 21.3664
885 1 3.57842 30.5517 19.2896
893 1 1.97119 34.7778 21.0839
904 1 1.80423 32.8452 23.1999
134 1 7.81053 38.4189 19.6314
910 1 3.92428 34.8068 22.8461
906 1 5.68568 32.6566 23.1162
897 1 5.95864 34.6277 21.225
888 1 3.95839 32.7214 21.2634
882 1 2.11479 32.7475 19.5005
886 1 5.82914 32.5937 19.4777
912 1 7.51976 34.4871 23.1248
890 1 7.75735 32.4165 21.3779
909 1 1.76871 36.4154 23.2271
911 1 5.72012 36.5958 22.7483
898 1 3.73954 36.5756 21.1278
895 1 4.11043 34.4871 19.4466
128 1 1.70807 38.2969 20.8869
881 1 0.170319 31.0447 19.313
153 1 3.52369 38.3722 23.1154
899 1 7.78788 34.5071 19.303
896 1 6.0784 36.6389 19.5217
1881 1 9.39114 32.532 19.4251
1892 1 9.49665 34.3015 21.5644
1891 1 9.55271 36.5608 19.2774
878 1 5.6147 29.0514 19.2923
916 1 1.7963 30.8831 25.14
913 1 0.00197385 28.9081 25.114
918 1 5.85062 30.6301 25.076
930 1 3.75256 30.7273 26.9639
941 1 1.98941 30.8762 28.856
927 1 5.89163 28.9547 27.1448
932 1 7.76068 30.8045 26.9422
921 1 1.45318 34.5167 25.021
929 1 1.99546 32.7914 27.0976
1921 1 9.42422 34.8251 24.8492
180 1 7.54101 38.3488 26.8877
926 1 1.80887 28.8852 26.9114
919 1 3.79748 32.8231 25.0295
923 1 5.49678 34.6655 24.9341
931 1 5.78775 32.6063 26.9948
935 1 3.94017 34.5642 26.9628
191 1 5.77186 38.3167 28.7641
937 1 7.8722 34.5468 26.8461
920 1 7.60984 32.6904 25.0893
925 1 7.57066 36.4994 24.8891
936 1 5.88466 36.3424 26.8618
934 1 2.05986 36.1652 26.9557
924 1 3.70524 36.6257 25.0008
178 1 3.69525 38.3497 26.9203
166 1 5.74865 38.3259 24.98
915 1 7.74497 28.8924 25.1928
945 1 8.02148 32.6523 28.6308
944 1 3.94805 32.7111 28.8791
948 1 5.89391 34.747 28.8528
1926 1 9.61157 28.9208 27.2064
1929 1 9.61877 32.7258 26.6742
958 1 1.98725 31.0047 32.4424
949 1 3.86129 36.5711 29.0066
1951 1 9.58494 29.2001 30.7634
960 1 3.99735 30.8998 30.7515
962 1 5.68087 30.9206 32.6105
205 1 3.81347 38.4518 30.8862
964 1 7.58218 31.0056 30.7404
940 1 7.68222 28.9747 29.0238
957 1 1.98265 32.9409 30.7219
968 1 1.94762 34.7461 32.7991
970 1 3.65152 34.8118 30.7377
961 1 5.75495 33.0024 30.9201
972 1 5.81838 34.7994 32.8971
963 1 3.96341 32.8003 32.7164
969 1 0.199797 36.5367 32.8695
965 1 7.78981 32.8568 32.7933
974 1 7.75013 34.7106 30.8164
943 1 6.03677 30.8971 28.914
967 1 1.95639 36.8183 31.1392
975 1 7.60206 36.736 32.8405
971 1 6.06888 36.5569 30.7812
959 1 0.0235467 32.9545 32.786
1957 1 9.49503 31.0095 32.7213
973 1 4.15515 36.5302 33.0976
955 1 7.58771 29.1722 32.7188
939 1 3.76849 29.0434 29.1415
950 1 8.18531 36.3641 29.0084
956 1 0.130374 31.0982 30.9182
946 1 1.77489 34.857 29.1346
1967 1 9.58679 34.6865 32.7064
952 1 0.107862 29.1316 32.9469
942 1 0.0242435 32.7848 28.9336
209 1 7.93383 38.4767 30.5332
189 1 2.10783 38.4039 28.9615
203 1 1.95852 38.4746 32.9488
953 1 5.81704 28.9467 30.585
954 1 3.72131 29.1195 32.7475
983 1 1.87618 30.8942 36.485
1982 1 9.24168 30.3932 36.7259
985 1 3.65024 30.9741 34.6556
987 1 5.50649 30.9707 36.5905
774 1 7.54892 34.6912 38.3183
989 1 7.70685 30.6119 34.9072
998 1 4.06158 36.5926 36.5326
982 1 1.78841 32.5522 34.3981
993 1 1.69121 34.6793 36.51