LAMMPS (29 Sep 2021 - Update 1)
Reading data file ...
  triclinic box = (0.0000000 0.0000000 0.0000000) to (10.600000 9.1798693 9.9800000) with tilt (0.0000000 0.0000000 0.0000000)
  1 by 1 by 1 MPI processor grid
  reading atoms ...
  64 atoms
  read_data CPU = 0.001 seconds
Neighbor list info ...
  update every 1 steps, delay 0 steps, check yes
  max neighbors/atom: 2000, page size: 100000
  master list distance cutoff = 7
  ghost atom cutoff = 7
  binsize = 3.5, bins = 4 3 3
  1 neighbor lists, perpetual/occasional/extra = 1 0 0
  (1) pair mlip, perpetual
      attributes: full, newton on
      pair build: full/bin/atomonly
      stencil: full/bin/3d
      bin: standard
Setting up Verlet run ...
  Unit style    : metal
  Current step  : 0
  Time step     : 0.001
Per MPI rank memory allocation (min/avg/max) = 3.089 | 3.089 | 3.089 Mbytes
Step Time Temp Volume Press 
       0            0         1380    971.12001    6643.6177 
       1        0.001    1379.0274    971.12001    6677.2815 
       2        0.002    1376.1128    971.12001    6778.1732 
       3        0.003    1371.2664    971.12001    6945.9719 
       4        0.004    1364.5057    971.12001     7180.016 
       5        0.005    1355.8564    971.12001     7475.512 
       6        0.006    1345.3534    971.12001    7826.9741 
       7        0.007    1333.0395    971.12001    8233.4438 
       8        0.008    1318.9639    971.12001    8695.6231 
       9        0.009    1303.1824    971.12001    9213.5413 
      10         0.01    1285.7572    971.12001    9786.1554 
Loop time of 0.212657 on 1 procs for 10 steps with 64 atoms

Performance: 4.063 ns/day, 5.907 hours/ns, 47.024 timesteps/s
92.7% CPU use with 1 MPI tasks x no OpenMP threads

MPI task timing breakdown:
Section |  min time  |  avg time  |  max time  |%varavg| %total
---------------------------------------------------------------
Pair    | 0.21255    | 0.21255    | 0.21255    |   0.0 | 99.95
Neigh   | 0          | 0          | 0          |   0.0 |  0.00
Comm    | 3.2282e-05 | 3.2282e-05 | 3.2282e-05 |   0.0 |  0.02
Output  | 3.9016e-05 | 3.9016e-05 | 3.9016e-05 |   0.0 |  0.02
Modify  | 2.4546e-05 | 2.4546e-05 | 2.4546e-05 |   0.0 |  0.01
Other   |            | 1.113e-05  |            |       |  0.01

Nlocal:        64.0000 ave          64 max          64 min
Histogram: 1 0 0 0 0 0 0 0 0 0
Nghost:        886.000 ave         886 max         886 min
Histogram: 1 0 0 0 0 0 0 0 0 0
Neighs:         0.00000 ave           0 max           0 min
Histogram: 1 0 0 0 0 0 0 0 0 0
FullNghs:      5504.00 ave        5504 max        5504 min
Histogram: 1 0 0 0 0 0 0 0 0 0

Total # of neighbors = 5504
Ave neighs/atom = 86.000000
Neighbor list builds = 0
Dangerous builds = 0
Setting up Verlet run ...
  Unit style    : metal
  Current step  : 10
  Time step     : 0.001
Per MPI rank memory allocation (min/avg/max) = 3.089 | 3.089 | 3.089 Mbytes
Step Time Temp Volume Press 
      10         0.01    1285.7572    971.12001    9786.1554 
      11        0.011    1266.7574    971.12001    10410.769 
      12        0.012    1246.2588    971.12001    11087.328 
      13        0.013    1224.3435    971.12001    11814.858 
      14        0.014    1201.0999    971.12001    12589.687 
      15        0.015    1176.6229    971.12001    13409.392 
      16        0.016    1151.0135    971.12001    14270.615 
      17        0.017    1124.3781    971.12001    15170.956 
      18        0.018    1096.8285    971.12001    16107.249 
      19        0.019    1068.4815    971.12001    17075.442 
      20         0.02    1039.4581    971.12001    18071.465 
      21        0.021    1009.8832    971.12001    19091.144 
      22        0.022    979.88461    971.12001    20130.881 
      23        0.023    949.59267    971.12001     21186.43 
      24        0.024    919.13918    971.12001    22252.908 
      25        0.025    888.65669    971.12001    23326.109 
      26        0.026    858.27747    971.12001     24400.52 
      27        0.027    828.13267    971.12001    25472.541 
      28        0.028    798.35159    971.12001     26538.13 
      29        0.029     769.0601    971.12001    27589.752 
      30         0.03    740.37983    971.12001    28624.661 
      31        0.031    712.42767    971.12001    29637.922 
      32        0.032     685.3149    971.12001    30626.817 
      33        0.033    659.14631    971.12001    31587.186 
      34        0.034    634.01938    971.12001    32516.147 
      35        0.035    610.02363    971.12001    33411.156 
      36        0.036    587.23978    971.12001     34268.95 
      37        0.037    565.73901    971.12001    35086.806 
      38        0.038    545.58258    971.12001    35862.284 
      39        0.039    526.82145    971.12001    36593.188 
      40         0.04    509.49594    971.12001    37277.176 
      41        0.041    493.63557    971.12001    37912.265 
      42        0.042    479.25906    971.12001    38497.266 
      43        0.043    466.37466    971.12001    39031.903 
      44        0.044    454.98037    971.12001    39515.401 
      45        0.045    445.06407    971.12001    39947.263 
      46        0.046    436.60413    971.12001    40329.321 
      47        0.047    429.56999    971.12001    40662.357 
      48        0.048    423.92248    971.12001    40947.075 
      49        0.049    419.61438    971.12001    41184.086 
      50         0.05    416.59121    971.12001    41374.713 
      51        0.051    414.79208    971.12001    41521.374 
      52        0.052    414.15035    971.12001    41625.231 
      53        0.053    414.59441    971.12001    41688.814 
      54        0.054    416.04857    971.12001    41714.693 
      55        0.055    418.43379    971.12001    41705.411 
      56        0.056    421.66826    971.12001    41662.327 
      57        0.057     425.6683    971.12001    41588.892 
      58        0.058     430.3492    971.12001    41487.633 
      59        0.059    435.62591    971.12001    41362.721 
      60         0.06    441.41366    971.12001    41216.262 
      61        0.061    447.62846    971.12001    41051.587 
      62        0.062    454.18784    971.12001    40871.649 
      63        0.063    461.01132    971.12001    40679.422 
      64        0.064    468.02076    971.12001    40476.976 
      65        0.065    475.14076    971.12001    40266.963 
      66        0.066    482.29923    971.12001    40052.948 
      67        0.067    489.42743    971.12001    39836.754 
      68        0.068    496.45997    971.12001    39618.209 
      69        0.069    503.33546    971.12001    39401.302 
      70         0.07    509.99733    971.12001    39187.864 
      71        0.071    516.39401    971.12001    38980.422 
      72        0.072    522.47868    971.12001    38781.647 
      73        0.073    528.20932    971.12001     38592.24 
      74        0.074    533.54891    971.12001    38413.336 
      75        0.075    538.46557    971.12001    38245.987 
      76        0.076    542.93245    971.12001    38092.133 
      77        0.077    546.92765    971.12001    37953.334 
      78        0.078    550.43426    971.12001    37829.724 
      79        0.079       553.44    971.12001    37718.386 
      80         0.08     555.9372    971.12001     37621.65 
      81        0.081     557.9234    971.12001    37541.948 
      82        0.082    559.40115    971.12001    37478.542 
      83        0.083    560.37758    971.12001    37431.229 
      84        0.084    560.86441    971.12001    37398.082 
      85        0.085    560.87762    971.12001    37379.557 
      86        0.086    560.43723    971.12001    37375.978 
      87        0.087    559.56726    971.12001    37387.135 
      88        0.088    558.29529    971.12001    37410.644 
      89        0.089    556.65218    971.12001    37446.523 
      90         0.09    554.67215    971.12001    37494.573 
      91        0.091    552.39237    971.12001    37553.585 
      92        0.092    549.85222    971.12001    37620.514 
      93        0.093    547.09311    971.12001    37695.321 
      94        0.094    544.15857    971.12001    37777.245 
      95        0.095    541.09396    971.12001    37864.327 
      96        0.096    537.94606    971.12001    37956.582 
      97        0.097    534.76221    971.12001    38051.118 
      98        0.098    531.58978    971.12001    38146.929 
      99        0.099    528.47611    971.12001    38242.031 
     100          0.1    525.46802    971.12001    38334.208 
Loop time of 1.90447 on 1 procs for 90 steps with 64 atoms

Performance: 4.083 ns/day, 5.878 hours/ns, 47.257 timesteps/s
100.0% CPU use with 1 MPI tasks x no OpenMP threads

MPI task timing breakdown:
Section |  min time  |  avg time  |  max time  |%varavg| %total
---------------------------------------------------------------
Pair    | 1.9034     | 1.9034     | 1.9034     |   0.0 | 99.94
Neigh   | 0.00020276 | 0.00020276 | 0.00020276 |   0.0 |  0.01
Comm    | 0.00029168 | 0.00029168 | 0.00029168 |   0.0 |  0.02
Output  | 0.00033904 | 0.00033904 | 0.00033904 |   0.0 |  0.02
Modify  | 0.00016834 | 0.00016834 | 0.00016834 |   0.0 |  0.01
Other   |            | 7.726e-05  |            |       |  0.00

Nlocal:        64.0000 ave          64 max          64 min
Histogram: 1 0 0 0 0 0 0 0 0 0
Nghost:        886.000 ave         886 max         886 min
Histogram: 1 0 0 0 0 0 0 0 0 0
Neighs:         0.00000 ave           0 max           0 min
Histogram: 1 0 0 0 0 0 0 0 0 0
FullNghs:      6058.00 ave        6058 max        6058 min
Histogram: 1 0 0 0 0 0 0 0 0 0

Total # of neighbors = 6058
Ave neighs/atom = 94.656250
Neighbor list builds = 1
Dangerous builds = 0
Setting up Verlet run ...
  Unit style    : metal
  Current step  : 100
  Time step     : 0.001
Per MPI rank memory allocation (min/avg/max) = 3.089 | 3.089 | 3.089 Mbytes
Step Time Temp Volume Press 
     100          0.1    525.46802    971.12001    38334.208 
     110         0.11    510.32789    971.12001    38812.925 
     120         0.12    539.47515    971.12001    37945.397 
     130         0.13    605.18378    971.12001     35982.49 
     140         0.14    665.89362    971.12001    34137.404 
     150         0.15    681.20195    971.12001     33742.44 
     160         0.16    644.80889    971.12001    35027.892 
     170         0.17    588.46519    971.12001    36986.336 
     180         0.18    558.67506    971.12001    38159.355 
     190         0.19    581.51927    971.12001    37735.596 
     200          0.2    644.57336    971.12001    36095.044 
     210         0.21    710.70854    971.12001    34345.278 
     220         0.22    748.08329    971.12001    33461.019 
     230         0.23    754.42153    971.12001    33592.116 
     240         0.24    747.49662    971.12001    34301.397 
     250         0.25    739.91771    971.12001    35171.348 
     260         0.26    732.38423    971.12001    36076.704 
     270         0.27    718.91643    971.12001    37156.185 
     280         0.28     694.0777    971.12001    38442.461 
     290         0.29    663.49635    971.12001    39729.506 
     300          0.3    647.18761    971.12001    40412.161 
     310         0.31    664.11875    971.12001    39947.498 
     320         0.32    715.20533    971.12001    38294.927 
     330         0.33     781.7078    971.12001     36058.27 
     340         0.34    833.03613    971.12001    34194.567 
     350         0.35    842.70684    971.12001    33561.029 
     360         0.36    807.74884    971.12001    34292.546 
     370         0.37    756.44457    971.12001    35461.509 
     380         0.38    726.78209    971.12001    35905.044 
     390         0.39    728.03387    971.12001    35351.217 
     400          0.4     736.7409    971.12001    34499.717 
     410         0.41    728.40629    971.12001    34084.785 
     420         0.42    703.25225    971.12001    34069.361 
     430         0.43    680.28249    971.12001    34015.118 
     440         0.44    671.58585    971.12001    33688.418 
     450         0.45     671.6027    971.12001    33301.027 
     460         0.46    666.04053    971.12001    33245.696 
     470         0.47    643.33402    971.12001    33786.316 
     480         0.48    605.32196    971.12001    34766.957 
     490         0.49    571.88519    971.12001     35583.88 
     500          0.5    565.03735    971.12001    35517.844 
     510         0.51    584.14287    971.12001    34573.754 
     520         0.52    611.87809    971.12001    33274.767 
     530         0.53    640.15457    971.12001    32026.819 
     540         0.54    668.50384    971.12001    30989.799 
     550         0.55     687.8625    971.12001    30404.354 
     560         0.56    688.16202    971.12001     30478.37 
     570         0.57    670.85916    971.12001    31177.067 
     580         0.58    646.81772    971.12001    32210.698 
     590         0.59    627.77001    971.12001    33194.671 
     600          0.6    616.96273    971.12001    34027.938 
     610         0.61    605.58439    971.12001    34915.582 
     620         0.62    584.25474    971.12001    36032.795 
     630         0.63    558.15378    971.12001    37220.934 
     640         0.64    544.26977    971.12001    38019.859 
     650         0.65    561.24313    971.12001    37930.213 
     660         0.66     621.9503    971.12001    36716.262 
     670         0.67    719.44521    971.12001    34789.079 
     680         0.68    819.09857    971.12001    32991.839 
     690         0.69    881.93588    971.12001    32133.381 
     700          0.7    902.18031    971.12001    32195.272 
     710         0.71    901.64945    971.12001    32736.346 
     720         0.72    891.86146    971.12001    33545.784 
     730         0.73    869.94618    971.12001    34680.963 
     740         0.74    838.63159    971.12001    36091.542 
     750         0.75    803.17105    971.12001     37532.35 
     760         0.76     764.9424    971.12001    38886.984 
     770         0.77    729.96943    971.12001    39962.283 
     780         0.78    705.27522    971.12001     40767.37 
     790         0.79    685.64986    971.12001    41414.288 
     800          0.8    664.83741    971.12001    42029.708 
     810         0.81    650.19121    971.12001    42418.929 
     820         0.82    644.44518    971.12001     42553.54 
     830         0.83    633.98916    971.12001    42730.891 
     840         0.84    614.55686    971.12001    42910.216 
     850         0.85    608.37815    971.12001    42426.009 
     860         0.86    641.99386    971.12001    40575.293 
     870         0.87    715.28497    971.12001    37511.543 
     880         0.88     798.2189    971.12001    34260.746 
     890         0.89    850.78143    971.12001    32062.628 
     900          0.9    847.53023    971.12001    31789.449 
     910         0.91    791.63803    971.12001    33376.973 
     920         0.92    708.08595    971.12001     36045.22 
     930         0.93    626.96572    971.12001    38647.635 
     940         0.94    576.05107    971.12001    39952.798 
     950         0.95    573.72319    971.12001    39506.493 
     960         0.96    614.17226    971.12001    37698.658 
     970         0.97    669.53622    971.12001    35429.823 
     980         0.98    710.13556    971.12001    33690.341 
     990         0.99    719.53308    971.12001    33003.137 
    1000            1    700.26989    971.12001    33219.863 
Loop time of 18.8346 on 1 procs for 900 steps with 64 atoms

Performance: 4.129 ns/day, 5.813 hours/ns, 47.784 timesteps/s
100.0% CPU use with 1 MPI tasks x no OpenMP threads

MPI task timing breakdown:
Section |  min time  |  avg time  |  max time  |%varavg| %total
---------------------------------------------------------------
Pair    | 18.826     | 18.826     | 18.826     |   0.0 | 99.95
Neigh   | 0.0030924  | 0.0030924  | 0.0030924  |   0.0 |  0.02
Comm    | 0.002966   | 0.002966   | 0.002966   |   0.0 |  0.02
Output  | 0.00043017 | 0.00043017 | 0.00043017 |   0.0 |  0.00
Modify  | 0.0015826  | 0.0015826  | 0.0015826  |   0.0 |  0.01
Other   |            | 0.0006904  |            |       |  0.00

Nlocal:        64.0000 ave          64 max          64 min
Histogram: 1 0 0 0 0 0 0 0 0 0
Nghost:        886.000 ave         886 max         886 min
Histogram: 1 0 0 0 0 0 0 0 0 0
Neighs:         0.00000 ave           0 max           0 min
Histogram: 1 0 0 0 0 0 0 0 0 0
FullNghs:      5994.00 ave        5994 max        5994 min
Histogram: 1 0 0 0 0 0 0 0 0 0

Total # of neighbors = 5994
Ave neighs/atom = 93.656250
Neighbor list builds = 15
Dangerous builds = 0
Setting up Verlet run ...
  Unit style    : metal
  Current step  : 1000
  Time step     : 0.001
Per MPI rank memory allocation (min/avg/max) = 3.089 | 3.089 | 3.089 Mbytes
Step Time Temp Volume Press 
    1000            1    700.26989    971.12001    33219.863 
    1100          1.1    669.73685    971.12001    29941.144 
    1200          1.2    623.77197    971.12001    28913.089 
    1300          1.3    581.05274    971.12001    30896.857 
    1400          1.4    711.04026    971.12001    34482.532 
    1500          1.5    674.60802    971.12001    39406.867 
    1600          1.6    753.15871    971.12001    35277.406 
    1700          1.7     626.1215    971.12001    36446.948 
    1800          1.8    640.69579    971.12001    32447.003 
    1900          1.9    581.49951    971.12001    33343.906 
    2000            2    640.88955    971.12001     33589.65 
    2100          2.1    772.09521    971.12001    34418.241 
    2200          2.2    630.02562    971.12001    39392.362 
    2300          2.3    608.67326    971.12001    36819.636 
    2400          2.4    620.36535    971.12001    30815.202 
    2500          2.5    544.95539    971.12001     30754.39 
    2600          2.6    647.62852    971.12001    27387.387 
    2700          2.7    688.18714    971.12001    35751.414 
    2800          2.8    782.49322    971.12001    36354.376 
    2900          2.9    642.12867    971.12001    39509.624 
    3000            3    692.46473    971.12001    32531.442 
    3100          3.1    635.98691    971.12001    34546.876 
    3200          3.2    668.63663    971.12001    35899.254 
    3300          3.3    749.30478    971.12001    39959.492 
    3400          3.4    717.16481    971.12001    41357.306 
    3500          3.5    731.25066    971.12001    33773.607 
    3600          3.6    631.27293    971.12001    35628.281 
    3700          3.7    718.45572    971.12001      34342.9 
    3800          3.8    650.22523    971.12001    38136.341 
    3900          3.9    837.39563    971.12001    38398.181 
    4000            4    817.36271    971.12001    41880.455 
    4100          4.1    730.75634    971.12001     35250.73 
    4200          4.2    586.57162    971.12001    37701.231 
    4300          4.3    619.96252    971.12001    36753.106 
    4400          4.4    757.43675    971.12001    36374.537 
    4500          4.5    766.49697    971.12001    37241.852 
    4600          4.6    782.80762    971.12001    33995.822 
    4700          4.7    654.27294    971.12001    29759.685 
    4800          4.8    620.87636    971.12001    25583.161 
    4900          4.9    573.40007    971.12001    31492.181 
    5000            5    641.62616    971.12001     35226.57 
    5100          5.1    685.07375    971.12001    36167.817 
    5200          5.2    839.83161    971.12001     34156.55 
    5300          5.3    571.47015    971.12001    38652.441 
    5400          5.4    680.00599    971.12001    29296.873 
    5500          5.5    646.22242    971.12001    31430.592 
    5600          5.6    622.83672    971.12001    32346.242 
    5700          5.7    702.08543    971.12001    32523.998 
    5800          5.8    696.00253    971.12001    37612.535 
    5900          5.9    655.01656    971.12001     41337.95 
    6000            6    818.24913    971.12001    37971.437 
    6100          6.1    612.11904    971.12001    37251.824 
    6200          6.2     656.9983    971.12001    30855.962 
    6300          6.3    659.30469    971.12001    32034.535 
    6400          6.4    739.08052    971.12001     35593.83 
    6500          6.5    695.56682    971.12001    39520.873 
    6600          6.6    686.42993    971.12001    37705.615 
    6700          6.7    673.01242    971.12001    32624.404 
    6800          6.8    550.29523    971.12001    31584.824 
    6900          6.9    562.39447    971.12001    32083.597 
    7000            7    750.13149    971.12001    32769.637 
    7100          7.1    742.63556    971.12001    34236.669 
    7200          7.2    718.91518    971.12001    32442.283 
    7300          7.3    612.04281    971.12001    32249.498 
    7400          7.4    549.63922    971.12001    31151.451 
    7500          7.5    541.30151    971.12001    32458.907 
    7600          7.6      661.955    971.12001    35715.296 
    7700          7.7    728.37615    971.12001    34414.128 
    7800          7.8    574.50649    971.12001    39803.455 
    7900          7.9    860.21619    971.12001     32015.11 
    8000            8    684.97005    971.12001     35824.64 
    8100          8.1    574.56344    971.12001    33413.245 
    8200          8.2    718.93813    971.12001    29568.794 
    8300          8.3     644.0409    971.12001    34577.394 
    8400          8.4    636.27253    971.12001    37562.789 
    8500          8.5    772.19538    971.12001     35396.33 
    8600          8.6    650.81553    971.12001    41664.592 
    8700          8.7    730.51457    971.12001    39668.695 
    8800          8.8    682.02952    971.12001    35942.657 
    8900          8.9    618.01101    971.12001    34089.017 
    9000            9    588.25286    971.12001    35527.673 
    9100          9.1    728.80986    971.12001    34705.102 
    9200          9.2    677.60705    971.12001    40863.674 
    9300          9.3    769.76279    971.12001    36677.703 
    9400          9.4    767.08788    971.12001    32281.614 
    9500          9.5    652.37892    971.12001    32148.583 
    9600          9.6    701.43544    971.12001    29119.269 
    9700          9.7    653.99824    971.12001    35453.261 
    9800          9.8    788.89428    971.12001    36935.239 
    9900          9.9    743.02049    971.12001    37984.299 
   10000           10    658.30776    971.12001    35844.795 
Loop time of 198.792 on 1 procs for 9000 steps with 64 atoms

Performance: 3.912 ns/day, 6.136 hours/ns, 45.274 timesteps/s
100.0% CPU use with 1 MPI tasks x no OpenMP threads

MPI task timing breakdown:
Section |  min time  |  avg time  |  max time  |%varavg| %total
---------------------------------------------------------------
Pair    | 198.7      | 198.7      | 198.7      |   0.0 | 99.95
Neigh   | 0.033674   | 0.033674   | 0.033674   |   0.0 |  0.02
Comm    | 0.032081   | 0.032081   | 0.032081   |   0.0 |  0.02
Output  | 0.00059129 | 0.00059129 | 0.00059129 |   0.0 |  0.00
Modify  | 0.016696   | 0.016696   | 0.016696   |   0.0 |  0.01
Other   |            | 0.00704    |            |       |  0.00

Nlocal:        64.0000 ave          64 max          64 min
Histogram: 1 0 0 0 0 0 0 0 0 0
Nghost:        886.000 ave         886 max         886 min
Histogram: 1 0 0 0 0 0 0 0 0 0
Neighs:         0.00000 ave           0 max           0 min
Histogram: 1 0 0 0 0 0 0 0 0 0
FullNghs:      6014.00 ave        6014 max        6014 min
Histogram: 1 0 0 0 0 0 0 0 0 0

Total # of neighbors = 6014
Ave neighs/atom = 93.968750
Neighbor list builds = 158
Dangerous builds = 0
System init for write_data ...
Total wall time: 0:03:39
