LAMMPS data file via write_data, version 29 Sep 2021, timestep = 10000

64 atoms
1 atom types

0 10.600000000000822 xlo xhi
0 9.179869280115762 ylo yhi
0 9.98 zlo zhi
0 0 0 xy xz yz

Masses

1 65.38

Atoms # atomic

1 1 1.3005647125282571 5.373181551939996 3.2194542986955135 0 0 0
2 1 1.3566620125532507 5.168396067551174 8.731777470223461 0 0 0
3 1 10.371782446114507 7.548133447343299 3.4063522907209807 -1 0 0
4 1 10.34311840037209 7.241285498145857 8.428192237475091 -1 0 0
5 1 6.721200651457465 0.6930279188482972 3.992578462792872 0 0 0
6 1 6.606279186709914 1.01949571281146 8.81919120867841 0 0 0
7 1 5.147460468895647 3.0539632792478457 3.8310827454227137 0 0 0
8 1 5.343969437462734 3.060695716927518 8.921023798300247 0 0 0
9 1 1.4481216686148153 0.6577526322605045 3.5775177237792315 0 0 0
10 1 1.3983630798993087 0.3472061061804523 8.657931507718507 0 0 0
11 1 0.2983372766224229 2.906675601891488 3.74656938917503 0 0 0
12 1 0.10591781285177809 2.954678292176651 8.76199398530572 0 0 0
13 1 4.284880474183091 0.6755532123234413 3.652703531431282 0 0 0
14 1 3.751448257831727 0.44056280810015075 8.723665244366053 0 0 0
15 1 2.79148979750496 3.3766869921967335 4.21534394420896 0 0 0
16 1 2.454487389860199 2.6658946224612508 8.706329677938424 0 0 0
17 1 6.676680614999075 5.127567351038209 3.7324151752768544 0 0 0
18 1 6.73452193362182 5.592922624045934 9.010823567204497 0 0 0
19 1 5.572094229341052 7.677365458000989 3.4345390972267866 0 0 0
20 1 5.556086227360235 7.638601560845446 8.518509056692565 0 0 0
21 1 9.301616105704554 5.202004425231773 3.772651665139673 0 0 0
22 1 9.203951354302449 5.053692560044649 9.030422389254882 0 0 0
23 1 8.02884387154426 7.586749421515903 3.841137413512073 0 0 0
24 1 7.840461649879836 7.8734559480103625 8.64404019347178 0 0 0
25 1 3.8584031957847906 5.494209353366354 3.6937661228163763 0 0 0
26 1 4.230900970231728 5.4333916605888595 8.86633928998319 0 0 0
27 1 2.5657887427673733 7.597983179045983 3.9104137060882835 0 0 0
28 1 2.6833941387946654 7.481435604957078 8.344929741798719 0 0 0
29 1 9.369183839471702 0.8229600688906716 3.8006993284303 0 0 0
30 1 9.333141146977335 0.8391123978852437 8.966388796879745 0 0 0
31 1 7.863403848986116 3.0248296216785167 3.65421420987257 0 0 0
32 1 8.004990801754682 3.0945000000533893 8.535530793128006 0 0 0
33 1 5.322936858716955 1.6916053014903616 1.3585924277984245 0 0 0
34 1 4.964903199385691 1.8430720997175278 6.703628662738288 0 0 0
35 1 3.7872612840365107 3.77326513327341 1.5015107075518206 0 0 0
36 1 4.104712256788734 4.106813363246019 6.689124399195326 0 0 0
37 1 2.738716736460983 5.890326495867245 1.079152890170803 0 0 0
38 1 2.8519086676355307 6.13379347022198 5.8768489753931545 0 0 0
39 1 1.401271735954479 8.037047514203026 1.0099849508621395 0 0 0
40 1 1.0290835500549727 8.590949069759233 5.814292412340442 0 0 0
41 1 10.463217202160743 1.418610776338397 1.641002132173596 -1 0 0
42 1 10.28649384449201 1.757416742852155 6.286842561381785 -1 0 0
43 1 2.7520865713516676 1.5830565083543724 1.6877365134955755 0 0 0
44 1 2.572642149342144 1.7542215923279876 5.972098821047917 0 0 0
45 1 1.2731189283664557 3.5610287805805245 1.171729980929741 0 0 0
46 1 1.26844969113578 3.769330407485039 6.368425046085136 0 0 0
47 1 10.34214063481932 6.207882485712943 1.0759286432871091 -1 0 0
48 1 0.3814662074451018 6.096905296731792 5.919784780254307 0 0 0
49 1 9.354226733588789 3.827664146673388 1.5487577261726924 0 0 0
50 1 9.138279810802338 4.111860210203358 6.337965080925541 0 0 0
51 1 7.948940980789002 6.335415902211081 1.6890925919836393 0 0 0
52 1 7.957729177283917 6.235738535147347 6.408284659645689 0 0 0
53 1 6.586197542224902 8.52788028291653 0.9748781319429313 0 0 0
54 1 6.43608436776862 8.513758029016506 6.1649625261677325 0 0 0
55 1 9.325694491198687 8.606906074706952 1.1084438232341536 0 0 0
56 1 9.220803853321225 8.554619386164282 6.03188969953638 0 0 0
57 1 7.911530164404452 1.6267444260164836 1.2189368405707603 0 0 0
58 1 7.681097367696522 1.6780140779919848 6.335222930093705 0 0 0
59 1 6.754367248094876 3.825999929956697 1.173530025902825 0 0 0
60 1 6.634569898080849 3.976027864629336 6.150819933383834 0 0 0
61 1 5.443148185931287 5.9512199887293225 1.3133891985657917 0 0 0
62 1 5.334048599822942 6.194037940503362 6.14356956826504 0 0 0
63 1 4.008454667543424 8.237511473676877 1.2805153409990535 0 0 0
64 1 3.9768716483438165 8.613122961389573 6.174529954894362 0 0 0

Velocities

1 1.7658799715008868 1.0938188447788315 2.1317750326786653
2 -3.4053390636854513 -0.049102358847013985 -3.2006921605900907
3 2.481274073586511 3.681667165486793 1.7310857031730449
4 3.461343159010533 2.708751773110026 0.8260790622147166
5 -2.7716134334025075 3.2525466953077484 -0.021759528516721922
6 -3.8652789547028594 0.011798451620192147 -3.4783204555835394
7 2.4535034191128045 -0.2050955223396152 -3.191053990614405
8 -0.8445653262686895 0.7275346341542726 1.0951795007280505
9 -4.607427057030112 2.4117335867061187 0.2339067758824727
10 2.47442821258898 -2.0809273554685794 1.4783038927918057
11 5.199326348664349 -9.147638660354167 1.4737954320403184
12 -0.8962007789409262 0.18185118139360837 -1.6965514168108173
13 -0.6054084310532482 2.8751960198344 -4.810674080912356
14 0.9756601361546584 -2.1159296733863036 -4.898032652380551
15 1.2056146606141174 -0.004067744130612495 -4.466301946309236
16 -0.3138726248192487 -6.008843296227729 -1.6018493746181064
17 6.445155811570545 3.5429840635987953 1.8529336303304758
18 5.220575218768512 -0.5916674377582584 2.0858152222635646
19 -2.689722723214281 -1.2979742982821696 0.1708014193281461
20 -2.4057120970741876 -1.081273829672563 1.9000317070581116
21 2.432292585111565 -0.4534679738674462 -0.6256417967892158
22 -1.6290130569758126 6.362332291643507 -0.622877739249415
23 -1.7593875150548632 -6.99631515765985 1.1407624166954575
24 1.10000368488403 -0.12539948776580057 -0.2828632560922897
25 -5.178685758843762 7.355793478794992 4.721155464390674
26 1.3770362684729454 -2.4368704318677485 3.1088796738504305
27 -2.2992531854533564 -2.170582797563803 -1.717221832542627
28 -2.1207662951253945 -0.19543384250396412 1.183532466265556
29 2.3825381356156865 -2.702575014209551 3.23658210248723
30 -0.5493743931582854 1.1687434741373355 0.06414886951035388
31 -1.3056235999483121 -0.26054158619996176 0.8800148322931622
32 6.5804994255938425 -1.5000443915259059 4.1099257527247435
33 -2.126080299744058 1.3564245528271675 0.33869921357041943
34 -3.248820630762624 0.6641399476276599 -0.05654532280362972
35 0.2849371614507223 6.694842767861934 -3.1124730198465618
36 3.8647737122593773 2.9482311582157146 3.228576696269855
37 -4.245724844377288 1.5961060180228448 -3.0266282114328766
38 -0.19446135339841744 1.620738139778072 -3.838879173563118
39 3.271309047016341 1.2909389804038955 -0.9542971434367958
40 -1.3758056669417176 -3.267540218150601 -3.29923676939591
41 -0.24067678214884158 1.8214500608845083 3.870646938542615
42 -1.3698165363425885 -9.957164455841765 4.9126976769433135
43 0.5207688469326764 0.03190296192360637 -3.771227253283416
44 -2.4741544355458607 1.0214869144581888 0.12347838105683558
45 -0.5405420367603699 1.0328875994484172 0.2889327567580059
46 1.3812351098302007 3.3109600300687076 0.8751340134933786
47 4.279377691144937 1.0352373478988721 4.025847658146862
48 -3.938520594869464 -2.01224387992945 -3.3216266218837385
49 0.29647572079257883 -1.4062245539941594 2.374106854038703
50 -0.26926980034364745 -3.091552319410911 -3.7537967950317386
51 0.3689501214332287 5.24877458943564 -1.2005839197844344
52 1.4004644232565724 -1.4900558898907124 -1.4947914493904504
53 2.8108840814397063 -4.536943089775775 2.186348561778808
54 -3.4447357745890725 -0.9013130046408617 -2.737130916088706
55 -1.1582232989311532 2.971263940380948 0.5904887454787503
56 -0.11387267732729019 1.5863328940509311 2.5156118344074607
57 1.575877848346286 5.993970740793025 -0.9875115044188861
58 1.9003689813202655 1.510782434138127 0.6256409893143989
59 -3.7511565139642586 -3.789254365409642 -0.20511350117338575
60 -3.055794924463156 -6.360936538663594 -0.7499326567270977
61 1.6559773377282525 0.6266825653400131 2.4316909459570515
62 2.038054413037259 0.7470268515048912 -0.006676875264393899
63 -0.5539651816004492 -0.7311704101807328 1.6160321233266592
64 -1.8557199603767753 -1.5167825701108029 -0.29835098125555864
