 # Something
 64 atoms
 1 atom types
 0   10.600000000000822      xlo xhi 
 0   9.1798692801157618      ylo yhi 
 0   9.9800000000000004      zlo zhi 
   0.0000000000000000        0.0000000000000000        0.0000000000000000      xy xz yz
 Atoms
 
           1           1   1.3250000000001028        5.3549237467341948        3.7425000000000002     
           2           1   1.3250000000001028        5.3549237467341948        8.7324999999999999     
           3           1   0.0000000000000000        7.6498910667631348        3.7425000000000002     
           4           1   0.0000000000000000        7.6498910667631348        8.7324999999999999     
           5           1   6.6250000000005134       0.76498910667631348        3.7425000000000002     
           6           1   6.6250000000005134       0.76498910667631348        8.7324999999999999     
           7           1   5.3000000000004110        3.0599564267052539        3.7425000000000002     
           8           1   5.3000000000004110        3.0599564267052539        8.7324999999999999     
           9           1   1.3250000000001028       0.76498910667631348        3.7425000000000002     
          10           1   1.3250000000001028       0.76498910667631348        8.7324999999999999     
          11           1   0.0000000000000000        3.0599564267052539        3.7425000000000002     
          12           1   0.0000000000000000        3.0599564267052539        8.7324999999999999     
          13           1   3.9750000000003083       0.76498910667631348        3.7425000000000002     
          14           1   3.9750000000003083       0.76498910667631348        8.7324999999999999     
          15           1   2.6500000000002055        3.0599564267052539        3.7425000000000002     
          16           1   2.6500000000002055        3.0599564267052539        8.7324999999999999     
          17           1   6.6250000000005134        5.3549237467341948        3.7425000000000002     
          18           1   6.6250000000005134        5.3549237467341948        8.7324999999999999     
          19           1   5.3000000000004110        7.6498910667631348        3.7425000000000002     
          20           1   5.3000000000004110        7.6498910667631348        8.7324999999999999     
          21           1   9.2750000000007198        5.3549237467341948        3.7425000000000002     
          22           1   9.2750000000007198        5.3549237467341948        8.7324999999999999     
          23           1   7.9500000000006166        7.6498910667631348        3.7425000000000002     
          24           1   7.9500000000006166        7.6498910667631348        8.7324999999999999     
          25           1   3.9750000000003083        5.3549237467341948        3.7425000000000002     
          26           1   3.9750000000003083        5.3549237467341948        8.7324999999999999     
          27           1   2.6500000000002055        7.6498910667631348        3.7425000000000002     
          28           1   2.6500000000002055        7.6498910667631348        8.7324999999999999     
          29           1   9.2750000000007198       0.76498910667631348        3.7425000000000002     
          30           1   9.2750000000007198       0.76498910667631348        8.7324999999999999     
          31           1   7.9500000000006166        3.0599564267052539        3.7425000000000002     
          32           1   7.9500000000006166        3.0599564267052539        8.7324999999999999     
          33           1   5.3000000000004110        1.5299782133526274        1.2475000000000001     
          34           1   5.3000000000004110        1.5299782133526274        6.2375000000000007     
          35           1   3.9750000000003083        3.8249455333815674        1.2475000000000001     
          36           1   3.9750000000003083        3.8249455333815674        6.2375000000000007     
          37           1   2.6500000000002055        6.1199128534105087        1.2475000000000001     
          38           1   2.6500000000002055        6.1199128534105087        6.2375000000000007     
          39           1   1.3250000000001028        8.4148801734394496        1.2475000000000001     
          40           1   1.3250000000001028        8.4148801734394496        6.2375000000000007     
          41           1   0.0000000000000000        1.5299782133526274        1.2475000000000001     
          42           1   0.0000000000000000        1.5299782133526274        6.2375000000000007     
          43           1   2.6500000000002055        1.5299782133526274        1.2475000000000001     
          44           1   2.6500000000002055        1.5299782133526274        6.2375000000000007     
          45           1   1.3250000000001028        3.8249455333815674        1.2475000000000001     
          46           1   1.3250000000001028        3.8249455333815674        6.2375000000000007     
          47           1   0.0000000000000000        6.1199128534105087        1.2475000000000001     
          48           1   0.0000000000000000        6.1199128534105087        6.2375000000000007     
          49           1   9.2750000000007198        3.8249455333815674        1.2475000000000001     
          50           1   9.2750000000007198        3.8249455333815674        6.2375000000000007     
          51           1   7.9500000000006166        6.1199128534105087        1.2475000000000001     
          52           1   7.9500000000006166        6.1199128534105087        6.2375000000000007     
          53           1   6.6250000000005134        8.4148801734394496        1.2475000000000001     
          54           1   6.6250000000005134        8.4148801734394496        6.2375000000000007     
          55           1   9.2750000000007198        8.4148801734394496        1.2475000000000001     
          56           1   9.2750000000007198        8.4148801734394496        6.2375000000000007     
          57           1   7.9500000000006166        1.5299782133526274        1.2475000000000001     
          58           1   7.9500000000006166        1.5299782133526274        6.2375000000000007     
          59           1   6.6250000000005134        3.8249455333815674        1.2475000000000001     
          60           1   6.6250000000005134        3.8249455333815674        6.2375000000000007     
          61           1   5.3000000000004110        6.1199128534105087        1.2475000000000001     
          62           1   5.3000000000004110        6.1199128534105087        6.2375000000000007     
          63           1   3.9750000000003083        8.4148801734394496        1.2475000000000001     
          64           1   3.9750000000003083        8.4148801734394496        6.2375000000000007     
