LAMMPS (29 Sep 2021 - Update 1)
Reading data file ...
  triclinic box = (0.0000000 0.0000000 0.0000000) to (10.520000 9.1105872 10.100000) with tilt (0.0000000 0.0000000 0.0000000)
  1 by 1 by 1 MPI processor grid
  reading atoms ...
  64 atoms
  read_data CPU = 0.001 seconds
Neighbor list info ...
  update every 1 steps, delay 0 steps, check yes
  max neighbors/atom: 2000, page size: 100000
  master list distance cutoff = 7
  ghost atom cutoff = 7
  binsize = 3.5, bins = 4 3 3
  1 neighbor lists, perpetual/occasional/extra = 1 0 0
  (1) pair mlip, perpetual
      attributes: full, newton on
      pair build: full/bin/atomonly
      stencil: full/bin/3d
      bin: standard
Setting up Verlet run ...
  Unit style    : metal
  Current step  : 0
  Time step     : 0.001
Per MPI rank memory allocation (min/avg/max) = 3.089 | 3.089 | 3.089 Mbytes
Step Time Temp Volume Press 
       0            0         1380    968.01812    13659.849 
       1        0.001    1378.9887    968.01812    13693.584 
       2        0.002    1375.9567    968.01812    13794.698 
       3        0.003    1370.9131    968.01812    13956.969 
       4        0.004     1363.878    968.01812     14173.34 
       5        0.005    1354.8804    968.01812    14444.773 
       6        0.006    1343.9564    968.01812    14773.786 
       7        0.007    1331.1496    968.01812    15162.196 
       8        0.008    1316.5115    968.01812    15609.494 
       9        0.009    1300.1018    968.01812    16114.033 
      10         0.01    1281.9887    968.01812    16674.305 
Loop time of 0.194991 on 1 procs for 10 steps with 64 atoms

Performance: 4.431 ns/day, 5.416 hours/ns, 51.285 timesteps/s
98.0% CPU use with 1 MPI tasks x no OpenMP threads

MPI task timing breakdown:
Section |  min time  |  avg time  |  max time  |%varavg| %total
---------------------------------------------------------------
Pair    | 0.19489    | 0.19489    | 0.19489    |   0.0 | 99.95
Neigh   | 0          | 0          | 0          |   0.0 |  0.00
Comm    | 2.9063e-05 | 2.9063e-05 | 2.9063e-05 |   0.0 |  0.01
Output  | 3.526e-05  | 3.526e-05  | 3.526e-05  |   0.0 |  0.02
Modify  | 2.1862e-05 | 2.1862e-05 | 2.1862e-05 |   0.0 |  0.01
Other   |            | 9.739e-06  |            |       |  0.00

Nlocal:        64.0000 ave          64 max          64 min
Histogram: 1 0 0 0 0 0 0 0 0 0
Nghost:        886.000 ave         886 max         886 min
Histogram: 1 0 0 0 0 0 0 0 0 0
Neighs:         0.00000 ave           0 max           0 min
Histogram: 1 0 0 0 0 0 0 0 0 0
FullNghs:      6272.00 ave        6272 max        6272 min
Histogram: 1 0 0 0 0 0 0 0 0 0

Total # of neighbors = 6272
Ave neighs/atom = 98.000000
Neighbor list builds = 0
Dangerous builds = 0
Setting up Verlet run ...
  Unit style    : metal
  Current step  : 10
  Time step     : 0.001
Per MPI rank memory allocation (min/avg/max) = 3.089 | 3.089 | 3.089 Mbytes
Step Time Temp Volume Press 
      10         0.01    1281.9887    968.01812    16674.305 
      11        0.011    1262.2489    968.01812    17289.029 
      12        0.012    1240.9672    968.01812    17955.388 
      13        0.013    1218.2369    968.01812    18670.948 
      14        0.014    1194.1596    968.01812    19433.096 
      15        0.015    1168.8446    968.01812    20238.134 
      16        0.016     1142.409    968.01812    21082.603 
      17        0.017     1114.977    968.01812     21962.82 
      18        0.018    1086.6797    968.01812    22875.039 
      19        0.019    1057.6541    968.01812    23814.853 
      20         0.02    1028.0424    968.01812    24777.772 
      21        0.021    997.99145    968.01812    25759.147 
      22        0.022    967.65129    968.01812    26754.219 
      23        0.023    937.17401    968.01812    27757.626 
      24        0.024    906.71278    968.01812    28764.557 
      25        0.025    876.42052    968.01812    29769.558 
      26        0.026    846.44869    968.01812    30768.395 
      27        0.027    816.94558    968.01812    31754.754 
      28        0.028    788.05465    968.01812        32723 
      29        0.029    759.91391    968.01812    33671.402 
      30         0.03    732.65469    968.01812    34596.029 
      31        0.031    706.39973    968.01812    35492.872 
      32        0.032    681.26176    968.01812    36357.662 
      33        0.033    657.34233    968.01812    37187.317 
      34        0.034    634.73099    968.01812    37980.031 
      35        0.035     613.5043    968.01812    38731.493 
      36        0.036     593.7252    968.01812    39440.344 
      37        0.037    575.44282    968.01812    40105.256 
      38        0.038    558.69199    968.01812    40724.417 
      39        0.039    543.49313    968.01812    41296.763 
      40         0.04    529.85251    968.01812    41821.872 
      41        0.041    517.76247    968.01812     42298.34 
      42        0.042    507.20194    968.01812    42725.863 
      43        0.043    498.13743    968.01812    43105.893 
      44        0.044    490.52401    968.01812    43439.829 
      45        0.045    484.30626    968.01812     43728.06 
      46        0.046    479.41934    968.01812    43971.865 
      47        0.047    475.79032    968.01812    44173.059 
      48        0.048    473.33942    968.01812    44333.228 
      49        0.049    471.98137    968.01812    44454.473 
      50         0.05    471.62689    968.01812    44539.126 
      51        0.051    472.18369    968.01812    44591.195 
      52        0.052    473.55737    968.01812    44612.407 
      53        0.053    475.65292    968.01812    44607.224 
      54        0.054    478.37577    968.01812    44577.878 
      55        0.055     481.6326    968.01812    44526.256 
      56        0.056    485.33196    968.01812    44454.096 
      57        0.057    489.38508    968.01812    44364.159 
      58        0.058    493.70692    968.01812    44261.742 
      59        0.059     498.2164    968.01812    44147.107 
      60         0.06    502.83664    968.01812    44026.289 
      61        0.061     507.4956    968.01812    43900.364 
      62        0.062    512.12602    968.01812    43768.713 
      63        0.063    516.66582    968.01812    43636.539 
      64        0.064    521.05841    968.01812    43505.608 
      65        0.065    525.25254    968.01812    43377.937 
      66        0.066    529.20197    968.01812    43253.538 
      67        0.067    532.86545    968.01812    43134.608 
      68        0.068    536.20723    968.01812    43024.179 
      69        0.069    539.19672    968.01812    42923.244 
      70         0.07    541.80814    968.01812    42833.229 
      71        0.071     544.0204    968.01812    42755.117 
      72        0.072    545.81688    968.01812    42689.482 
      73        0.073    547.18541    968.01812    42636.849 
      74        0.074    548.11779    968.01812    42598.814 
      75        0.075    548.60924    968.01812    42573.141 
      76        0.076    548.65883    968.01812    42560.406 
      77        0.077    548.26994    968.01812    42561.742 
      78        0.078    547.44973    968.01812    42576.849 
      79        0.079     546.2089    968.01812    42605.831 
      80         0.08     544.5615    968.01812    42648.664 
      81        0.081    542.52472    968.01812    42704.942 
      82        0.082    540.11889    968.01812    42773.391 
      83        0.083    537.36747    968.01812    42851.686 
      84        0.084    534.29639    968.01812    42940.568 
      85        0.085     530.9336    968.01812    43038.149 
      86        0.086    527.30948    968.01812    43145.127 
      87        0.087    523.45674    968.01812    43260.512 
      88        0.088    519.41015    968.01812    43382.561 
      89        0.089    515.20638    968.01812    43509.178 
      90         0.09    510.88347    968.01812    43639.343 
      91        0.091    506.48057    968.01812    43772.822 
      92        0.092    502.03793    968.01812    43908.519 
      93        0.093    497.59653    968.01812    44044.426 
      94        0.094    493.19784    968.01812    44180.166 
      95        0.095    488.88356    968.01812     44313.18 
      96        0.096     484.6952    968.01812    44442.142 
      97        0.097    480.67359    968.01812    44564.932 
      98        0.098    476.85864    968.01812    44681.524 
      99        0.099    473.28885    968.01812    44790.996 
     100          0.1    470.00141    968.01812    44889.931 
Loop time of 1.78723 on 1 procs for 90 steps with 64 atoms

Performance: 4.351 ns/day, 5.516 hours/ns, 50.357 timesteps/s
100.0% CPU use with 1 MPI tasks x no OpenMP threads

MPI task timing breakdown:
Section |  min time  |  avg time  |  max time  |%varavg| %total
---------------------------------------------------------------
Pair    | 1.7862     | 1.7862     | 1.7862     |   0.0 | 99.94
Neigh   | 0.00020618 | 0.00020618 | 0.00020618 |   0.0 |  0.01
Comm    | 0.00027786 | 0.00027786 | 0.00027786 |   0.0 |  0.02
Output  | 0.00030829 | 0.00030829 | 0.00030829 |   0.0 |  0.02
Modify  | 0.00015488 | 0.00015488 | 0.00015488 |   0.0 |  0.01
Other   |            | 7.084e-05  |            |       |  0.00

Nlocal:        64.0000 ave          64 max          64 min
Histogram: 1 0 0 0 0 0 0 0 0 0
Nghost:        886.000 ave         886 max         886 min
Histogram: 1 0 0 0 0 0 0 0 0 0
Neighs:         0.00000 ave           0 max           0 min
Histogram: 1 0 0 0 0 0 0 0 0 0
FullNghs:      6100.00 ave        6100 max        6100 min
Histogram: 1 0 0 0 0 0 0 0 0 0

Total # of neighbors = 6100
Ave neighs/atom = 95.312500
Neighbor list builds = 1
Dangerous builds = 0
Setting up Verlet run ...
  Unit style    : metal
  Current step  : 100
  Time step     : 0.001
Per MPI rank memory allocation (min/avg/max) = 3.089 | 3.089 | 3.089 Mbytes
Step Time Temp Volume Press 
     100          0.1    470.00141    968.01812    44889.931 
     110         0.11    459.00283    968.01812    45199.998 
     120         0.12    494.92776    968.01812    44084.472 
     130         0.13      563.551    968.01812    41907.838 
     140         0.14    633.89819    968.01812    39671.688 
     150         0.15    678.51277    968.01812    38197.387 
     160         0.16    689.04448    968.01812    37858.458 
     170         0.17    677.60837    968.01812    38399.647 
     180         0.18     661.5148    968.01812    39243.791 
     190         0.19    650.59143    968.01812    39966.647 
     200          0.2    647.52591    968.01812    40418.482 
     210         0.21    650.87902    968.01812    40655.952 
     220         0.22     659.0798    968.01812    40711.047 
     230         0.23    674.55104    968.01812    40523.151 
     240         0.24    694.78841    968.01812     40329.42 
     250         0.25    708.92123    968.01812    40429.817 
     260         0.26    709.85342    968.01812    41001.909 
     270         0.27    701.52532    968.01812    41867.554 
     280         0.28    694.48379    968.01812    42692.851 
     290         0.29    698.67575    968.01812    43052.579 
     300          0.3    719.00796    968.01812     42759.24 
     310         0.31    747.02673    968.01812    42116.186 
     320         0.32    762.89426    968.01812    41826.503 
     330         0.33    754.95082    968.01812    42274.083 
     340         0.34    732.17761    968.01812    43163.826 
     350         0.35    713.05786    968.01812    43975.701 
     360         0.36    704.49856    968.01812    44460.075 
     370         0.37    699.16448    968.01812    44659.596 
     380         0.38    689.71011    968.01812    44805.485 
     390         0.39    682.90734    968.01812    44717.063 
     400          0.4    693.40241    968.01812    44194.821 
     410         0.41    719.87916    968.01812    43340.501 
     420         0.42    741.01052    968.01812    42648.827 
     430         0.43    746.60812    968.01812    42292.843 
     440         0.44    744.72495    968.01812    42150.657 
     450         0.45    742.43948    968.01812    41841.112 
     460         0.46    743.06186    968.01812    41113.014 
     470         0.47    746.81313    968.01812    40036.679 
     480         0.48    743.59758    968.01812    38984.604 
     490         0.49    722.97134    968.01812    38330.922 
     500          0.5    693.04856    968.01812    37853.228 
     510         0.51    672.66738    968.01812    37144.129 
     520         0.52    667.20025    968.01812    36171.457 
     530         0.53    664.87577    968.01812    35307.518 
     540         0.54     652.1649    968.01812    35009.832 
     550         0.55    627.22774    968.01812    35284.525 
     560         0.56    599.38987    968.01812     35801.79 
     570         0.57    579.58368    968.01812    36141.328 
     580         0.58    574.85154    968.01812    36040.207 
     590         0.59    587.13793    968.01812     35513.11 
     600          0.6    608.02265    968.01812    34865.733 
     610         0.61    619.96526    968.01812     34570.66 
     620         0.62    612.05342    968.01812    34903.613 
     630         0.63    590.21507    968.01812    35759.885 
     640         0.64    569.83263    968.01812    36648.813 
     650         0.65    564.26372    968.01812    37080.671 
     660         0.66    576.34802    968.01812     36964.74 
     670         0.67    597.43694    968.01812    36489.622 
     680         0.68    620.68126    968.01812     35829.97 
     690         0.69    649.46448    968.01812    35030.695 
     700          0.7    684.37451    968.01812     34311.19 
     710         0.71     710.7717    968.01812    34101.151 
     720         0.72    709.81556    968.01812     34910.36 
     730         0.73    680.80037    968.01812    36612.463 
     740         0.74    643.16748    968.01812    38623.248 
     750         0.75    618.72507    968.01812     40181.37 
     760         0.76    620.35757    968.01812    40730.682 
     770         0.77    646.40869    968.01812     40350.91 
     780         0.78    678.74703    968.01812    39717.783 
     790         0.79    696.03457    968.01812    39502.506 
     800          0.8    690.47284    968.01812    40069.047 
     810         0.81    668.02927    968.01812    41302.334 
     820         0.82    640.45215    968.01812     42738.03 
     830         0.83    621.65279    968.01812    43812.287 
     840         0.84    623.08894    968.01812    44185.328 
     850         0.85    645.86102    968.01812    43904.572 
     860         0.86    676.97652    968.01812    43341.407 
     870         0.87     694.7898    968.01812    43225.362 
     880         0.88    687.31171    968.01812    43908.453 
     890         0.89    664.43931    968.01812    45021.378 
     900          0.9    646.38686    968.01812    45891.686 
     910         0.91     648.1024    968.01812    46010.845 
     920         0.92    675.42676    968.01812    45193.354 
     930         0.93    722.02361    968.01812    43695.468 
     940         0.94    770.32025    968.01812    42139.272 
     950         0.95    800.06875    968.01812    41100.354 
     960         0.96    800.21567    968.01812    40863.155 
     970         0.97    778.00131    968.01812    41174.975 
     980         0.98    754.40553    968.01812    41445.092 
     990         0.99    749.16676    968.01812    41294.647 
    1000            1    763.52427    968.01812     40713.18 
Loop time of 17.8993 on 1 procs for 900 steps with 64 atoms

Performance: 4.344 ns/day, 5.524 hours/ns, 50.281 timesteps/s
100.0% CPU use with 1 MPI tasks x no OpenMP threads

MPI task timing breakdown:
Section |  min time  |  avg time  |  max time  |%varavg| %total
---------------------------------------------------------------
Pair    | 17.891     | 17.891     | 17.891     |   0.0 | 99.95
Neigh   | 0.002927   | 0.002927   | 0.002927   |   0.0 |  0.02
Comm    | 0.0028147  | 0.0028147  | 0.0028147  |   0.0 |  0.02
Output  | 0.00037744 | 0.00037744 | 0.00037744 |   0.0 |  0.00
Modify  | 0.0014759  | 0.0014759  | 0.0014759  |   0.0 |  0.01
Other   |            | 0.000642   |            |       |  0.00

Nlocal:        64.0000 ave          64 max          64 min
Histogram: 1 0 0 0 0 0 0 0 0 0
Nghost:        886.000 ave         886 max         886 min
Histogram: 1 0 0 0 0 0 0 0 0 0
Neighs:         0.00000 ave           0 max           0 min
Histogram: 1 0 0 0 0 0 0 0 0 0
FullNghs:      6098.00 ave        6098 max        6098 min
Histogram: 1 0 0 0 0 0 0 0 0 0

Total # of neighbors = 6098
Ave neighs/atom = 95.281250
Neighbor list builds = 15
Dangerous builds = 0
Setting up Verlet run ...
  Unit style    : metal
  Current step  : 1000
  Time step     : 0.001
Per MPI rank memory allocation (min/avg/max) = 3.089 | 3.089 | 3.089 Mbytes
Step Time Temp Volume Press 
    1000            1    763.52427    968.01812     40713.18 
    1100          1.1    699.54905    968.01812    40999.743 
    1200          1.2     626.8108    968.01812    42694.806 
    1300          1.3    712.19577    968.01812    41689.604 
    1400          1.4    660.75993    968.01812    41951.982 
    1500          1.5     726.1668    968.01812    38385.781 
    1600          1.6    578.33528    968.01812    41712.451 
    1700          1.7    581.28639    968.01812    35421.354 
    1800          1.8    600.49999    968.01812    30833.228 
    1900          1.9    632.55962    968.01812    34588.387 
    2000            2    682.74398    968.01812    37822.856 
    2100          2.1    648.47853    968.01812    43991.657 
    2200          2.2    771.24467    968.01812    43090.689 
    2300          2.3    662.60771    968.01812    42239.439 
    2400          2.4    648.24124    968.01812    38457.039 
    2500          2.5    672.85201    968.01812     38240.02 
    2600          2.6    653.22888    968.01812    40796.159 
    2700          2.7    785.70107    968.01812    37240.983 
    2800          2.8    642.16725    968.01812    42143.497 
    2900          2.9    651.62053    968.01812    40353.943 
    3000            3    699.85955    968.01812    37872.508 
    3100          3.1     729.1204    968.01812     39688.95 
    3200          3.2     644.6314    968.01812    44070.261 
    3300          3.3    697.65733    968.01812    44140.026 
    3400          3.4     685.5602    968.01812     45621.29 
    3500          3.5     795.4775    968.01812    44892.359 
    3600          3.6    790.98805    968.01812    39739.921 
    3700          3.7    635.51983    968.01812    37000.941 
    3800          3.8    564.91587    968.01812    38144.366 
    3900          3.9    553.95343    968.01812    41733.732 
    4000            4    581.43478    968.01812    44728.611 
    4100          4.1    745.89978    968.01812    41333.921 
    4200          4.2    761.76412    968.01812    37866.739 
    4300          4.3     589.4201    968.01812    43517.339 
    4400          4.4    745.40508    968.01812    36378.454 
    4500          4.5    637.08048    968.01812    42713.861 
    4600          4.6    729.03866    968.01812    41346.195 
    4700          4.7    657.77413    968.01812    43162.281 
    4800          4.8    704.11598    968.01812    38698.164 
    4900          4.9    590.28908    968.01812    37462.863 
    5000            5    616.92058    968.01812    38916.347 
    5100          5.1     718.5023    968.01812    43834.443 
    5200          5.2    695.14094    968.01812    42530.116 
    5300          5.3    681.03258    968.01812    42456.567 
    5400          5.4    718.84107    968.01812    41419.478 
    5500          5.5    595.99351    968.01812    36248.577 
    5600          5.6    597.56704    968.01812     34251.81 
    5700          5.7    554.35975    968.01812    42087.527 
    5800          5.8    810.85482    968.01812    38889.809 
    5900          5.9    580.71422    968.01812    48252.455 
    6000            6     810.4351    968.01812    39143.266 
    6100          6.1    518.73832    968.01812    43872.872 
    6200          6.2    739.60831    968.01812    35866.784 
    6300          6.3    737.47587    968.01812    39107.575 
    6400          6.4    713.92393    968.01812    41503.333 
    6500          6.5    751.53743    968.01812    42096.482 
    6600          6.6    710.09608    968.01812    40285.416 
    6700          6.7    604.21655    968.01812    36928.107 
    6800          6.8    707.50534    968.01812    33146.742 
    6900          6.9    581.14807    968.01812    41322.566 
    7000            7    743.55105    968.01812    38624.557 
    7100          7.1    637.02945    968.01812    43581.779 
    7200          7.2    777.45141    968.01812    39399.352 
    7300          7.3    705.40196    968.01812    45836.032 
    7400          7.4    776.11085    968.01812    44080.669 
    7500          7.5     662.7019    968.01812    42482.741 
    7600          7.6    781.72205    968.01812    32165.662 
    7700          7.7    583.51065    968.01812    39773.479 
    7800          7.8     748.4526    968.01812    39876.115 
    7900          7.9    635.67064    968.01812    44727.292 
    8000            8    755.24874    968.01812    41990.367 
    8100          8.1    803.22787    968.01812    39908.148 
    8200          8.2    712.14668    968.01812    39729.188 
    8300          8.3    679.51739    968.01812    37415.848 
    8400          8.4    624.53238    968.01812    39837.411 
    8500          8.5    706.99138    968.01812     37544.64 
    8600          8.6     744.3499    968.01812    38413.002 
    8700          8.7    641.56198    968.01812    42204.207 
    8800          8.8    642.41625    968.01812    44907.302 
    8900          8.9    810.84446    968.01812    45980.737 
    9000            9    805.50591    968.01812    40227.303 
    9100          9.1    638.61824    968.01812    41077.704 
    9200          9.2    727.27296    968.01812     39993.51 
    9300          9.3    588.87565    968.01812     42192.49 
    9400          9.4    694.95063    968.01812      34591.2 
    9500          9.5    538.04582    968.01812    37359.644 
    9600          9.6    701.13598    968.01812     34690.64 
    9700          9.7    702.67182    968.01812     42745.68 
    9800          9.8    697.33601    968.01812     43059.23 
    9900          9.9    630.66999    968.01812    44341.655 
   10000           10    673.24684    968.01812    40632.016 
Loop time of 198.4 on 1 procs for 9000 steps with 64 atoms

Performance: 3.919 ns/day, 6.123 hours/ns, 45.363 timesteps/s
100.0% CPU use with 1 MPI tasks x no OpenMP threads

MPI task timing breakdown:
Section |  min time  |  avg time  |  max time  |%varavg| %total
---------------------------------------------------------------
Pair    | 198.31     | 198.31     | 198.31     |   0.0 | 99.96
Neigh   | 0.033561   | 0.033561   | 0.033561   |   0.0 |  0.02
Comm    | 0.031589   | 0.031589   | 0.031589   |   0.0 |  0.02
Output  | 0.000569   | 0.000569   | 0.000569   |   0.0 |  0.00
Modify  | 0.016017   | 0.016017   | 0.016017   |   0.0 |  0.01
Other   |            | 0.006998   |            |       |  0.00

Nlocal:        64.0000 ave          64 max          64 min
Histogram: 1 0 0 0 0 0 0 0 0 0
Nghost:        886.000 ave         886 max         886 min
Histogram: 1 0 0 0 0 0 0 0 0 0
Neighs:         0.00000 ave           0 max           0 min
Histogram: 1 0 0 0 0 0 0 0 0 0
FullNghs:      6134.00 ave        6134 max        6134 min
Histogram: 1 0 0 0 0 0 0 0 0 0

Total # of neighbors = 6134
Ave neighs/atom = 95.843750
Neighbor list builds = 158
Dangerous builds = 0
System init for write_data ...
Total wall time: 0:03:38
