LAMMPS data file via write_data, version 29 Sep 2021, timestep = 10000

64 atoms
1 atom types

0 10.519999999999747 xlo xhi
0 9.110587247812074 ylo yhi
0 10.1 zlo zhi
0 0 0 xy xz yz

Masses

1 65.38

Atoms # atomic

1 1 1.3275007735389601 5.073741290414158 4.0351875374383255 0 0 0
2 1 1.66527616383481 5.266214518075802 8.3906814427774 0 0 0
3 1 0.07551142362606963 7.418399653202649 3.342557749849565 0 0 0
4 1 0.13924825560666265 7.474529632254329 8.401224759009569 0 0 0
5 1 6.882255248125504 0.9743648725928961 3.757670510111095 0 0 0
6 1 6.679849495327238 0.7254068206261419 9.43543313044153 0 0 0
7 1 5.334463521510884 3.0556108667226667 3.9092280906919963 0 0 0
8 1 5.471091529064376 2.9004864423043597 8.370806021771784 0 0 0
9 1 1.2764272310212748 0.7623541259435505 3.9375096252758683 0 0 0
10 1 1.4969010160737686 0.44108125819244015 8.906173310647153 0 0 0
11 1 10.393170429465577 2.8988914728919775 3.9745891612643045 -1 0 0
12 1 10.487167909637952 3.024628135941374 8.770303477329222 -1 0 0
13 1 4.096946327213994 0.7566158622569725 3.4486870984153866 0 0 0
14 1 4.00421122355833 0.9676094008268674 8.505311835674213 0 0 0
15 1 2.740158783643589 2.8680615191520324 4.178202331193418 0 0 0
16 1 2.7479778845770753 2.974814304392649 9.183249765365778 0 0 0
17 1 6.3141590419857865 5.49064387919284 3.6978652057428056 0 0 0
18 1 6.839713200037707 5.056719196655133 9.28146909200907 0 0 0
19 1 5.081430608008367 7.852520662509492 4.287980035103826 0 0 0
20 1 5.4820943211207025 7.334886828405168 8.845668097608367 0 0 0
21 1 9.388790397526396 5.167064642174908 3.5269507926520736 0 0 0
22 1 9.223502912016082 5.295848801905961 8.961931117371208 0 0 0
23 1 7.9434033010686225 7.656576185883863 3.6312533450888163 0 0 0
24 1 7.9829295096787884 7.623983012282145 8.692926145279507 0 0 0
25 1 3.8024968279398665 5.317478180561448 3.2900630622217495 0 0 0
26 1 4.195430442360981 5.014404972516843 8.996269803136517 0 0 0
27 1 2.6587436651539598 7.589678604184923 3.7180442021228175 0 0 0
28 1 2.880247077073587 7.654642711578433 9.152846117823568 0 0 0
29 1 9.410810135941158 0.4640624698273208 4.078740301531448 0 0 0
30 1 9.417481765109937 0.8817087909925383 9.057823987816004 0 0 0
31 1 7.837680884386245 3.339539856511491 3.972335254389529 0 0 0
32 1 7.986503685139458 2.932997887617138 8.499114145242169 0 0 0
33 1 5.000219159951135 1.5924422766148778 0.8923080143321167 0 0 0
34 1 5.402915501272758 1.2866509405790594 6.098874477028073 0 0 0
35 1 3.8743096821224086 3.7213745179549775 1.3566621716563392 0 0 0
36 1 3.8779996667166317 3.7811073116443676 6.423628339229254 0 0 0
37 1 2.5549803769760744 6.347006112746154 1.2619741903396682 0 0 0
38 1 2.759296149504972 6.090835499444946 5.858401359657552 0 0 0
39 1 1.1911279735382074 8.453582763117987 1.1241143801757865 0 0 0
40 1 1.1243057980390125 8.368278849325076 6.054031649476283 0 0 0
41 1 10.324980016475024 1.6819074700879268 1.3750589365166255 -1 0 0
42 1 0.21327783266664474 1.3952071471169045 6.198122103037299 0 0 0
43 1 2.29109435507057 1.5974258211656982 1.461569295965713 0 0 0
44 1 2.6947497706014056 1.3940511789722716 6.50080990005242 0 0 0
45 1 1.383973155658612 3.9274117929435417 1.056975547088765 0 0 0
46 1 1.236709923960923 3.6483171296786323 6.475848393773723 0 0 0
47 1 10.516689204727792 6.220395346518433 0.8109077101936126 -1 0 0
48 1 0.03763106744236309 6.035494635751723 6.293862029483631 0 0 0
49 1 9.115782787978643 3.88473280667569 1.1154677566955096 0 0 0
50 1 9.377645203024278 3.8077392676877113 6.373812442500076 0 0 0
51 1 7.641494052226001 6.421159153821769 1.1879962917257965 0 0 0
52 1 7.9543776663283925 6.011638111045189 6.253496280450093 0 0 0
53 1 6.174870792532371 8.605320998882187 1.7277127683745839 0 0 0
54 1 6.393112940039208 8.426220671291492 6.682104857635271 0 0 0
55 1 9.135607090329156 8.627837899700532 1.1149844697233846 0 0 0
56 1 8.994178078022145 8.425064507019448 6.513462044958175 0 0 0
57 1 7.719321469640692 1.6986571254765164 1.2474464943018972 0 0 0
58 1 7.835194547500799 1.400093790812085 6.190377696808109 0 0 0
59 1 6.36358660661518 3.7755858076226336 1.4984004371385395 0 0 0
60 1 6.464966125462014 3.7862182599624057 5.9870424724573175 0 0 0
61 1 5.008181892062618 6.262006884780462 1.2483387858539963 0 0 0
62 1 5.2079945929820965 5.934341484122096 6.4815674983638525 0 0 0
63 1 3.7416111850152363 8.474663516597886 1.3416941795409247 0 0 0
64 1 3.7642403451376376 8.20045599224003 6.754850473070127 0 0 0

Velocities

1 2.506389708909759 -0.8728668059038027 -4.04639346503354
2 4.473902048152296 3.0687685319679816 -0.1485244643867828
3 -0.7012337305437317 2.1020050773761394 5.060833761038561
4 1.8283816119367442 -1.173456897943443 1.8805760620692058
5 -2.0825238717927905 -3.7008544095117903 0.16118438059664802
6 -0.3364657311824338 -3.880218404440545 -0.07451872705238727
7 1.6025135159713861 2.0055500373814095 0.7149452947618495
8 -1.2432751568299305 0.8248357173215566 6.165713691596467
9 -4.239384381899226 -4.396532470490608 4.72087568105523
10 2.584905644310012 -4.149888979274354 0.34843337881150444
11 1.7219590151834527 3.4499549890658883 1.2313328837122384
12 2.6023244643160965 1.9978700984290148 -2.7162368014871627
13 1.3077284647933487 -2.1590827901044696 -0.5626602008267245
14 -0.4749819159361463 0.181484817346247 0.2554433281822038
15 -1.8969878782515879 -0.1013362681745045 -0.3640145981820843
16 0.3452631814014475 6.977227456500009 4.248495129787002
17 4.984514201582615 -2.682276101285589 -1.6176765011592371
18 -0.36954603300404926 -1.4195767950467066 1.1559183873476437
19 -4.8843816168359915 -2.0114385189838235 -1.221189789293172
20 -4.460837913462883 1.3825984564975582 3.176128155135551
21 -2.2404459964442935 0.22074773151416371 -5.083368897486587
22 0.2225113211941584 0.7105345958051377 -1.9547744173854944
23 1.6723462639596538 -1.9655106657898118 -6.7609534600611685
24 5.297499802678836 -2.918858043047812 4.8927489589858215
25 0.9454170972479358 2.4839202994510967 -0.5580145947087326
26 3.7177577754461337 3.3585127974046296 0.3182492660560395
27 1.6250318326185698 6.710843462268405 -2.166397438737536
28 2.0816051774353466 -0.5685152600048868 -2.1065779846771067
29 0.06646758097777727 2.1815720224764155 2.8993637689326976
30 4.5467999829645755 1.059130803753809 -4.414073191344235
31 -1.5375576999433807 -3.7609223225367354 0.3438651743287166
32 0.9755681876858725 -0.6397534409349434 -3.352672133423351
33 -4.1802991334305935 1.713329098169017 4.849741372827616
34 -1.8889052144228338 5.415817181738752 -2.77108156744737
35 -3.8697402557979492 -1.0034090695110083 -4.5123735320957525
36 1.9938952275275819 1.261549715421754 4.939085417288015
37 0.21944100097011512 -1.7476402548761614 -3.9761932854284
38 -2.722035440088194 -2.176754954123847 3.887842804929895
39 0.0882519921953391 -3.4790339519389524 5.814722092608945
40 1.6888882958193125 -1.1414708475407105 -0.9880214626323508
41 -0.11729444511610097 -1.905028520028598 -0.15415809474959094
42 -0.5110734091006259 1.3690814058630298 -0.7106979372617294
43 0.2685799891784815 -3.3502177378469153 1.2559836107001625
44 3.9691597326176042 -1.8246907586186465 -4.839763153993654
45 1.6719012470651982 0.4531766267751777 1.1680165353390093
46 -7.48149175849045 8.97401050478753 4.601450533093178
47 -1.3228299371005285 -0.7320320036516308 -1.49737261312699
48 -5.6374772943191696 0.39717179787029583 -1.8886726514862495
49 4.361123588827103 0.578867774520775 -1.630382391609955
50 -3.9651632395047063 -0.6845151510212425 1.0091904420955322
51 -3.53132182985418 1.6512173345876098 -2.4200396417353653
52 -2.2876910778277244 -3.971341130855655 -4.4674544052740535
53 1.4786609035487293 0.7071747492226058 0.8610150129276803
54 -1.7368115809030924 2.5135702401261244 2.445770845186307
55 0.01326245996700401 -5.914344184273026 -0.4282862728940059
56 1.5001210699192165 1.5189659374941218 -3.2608463699906065
57 1.492964073184095 3.16124792184569 0.2049954496097923
58 1.553470853364594 0.6775054539049737 4.274801042980005
59 -2.347610202259404 -1.7845556295737726 0.4648978150245017
60 -4.7564924854061825 -2.9184032504896296 0.20824238602840292
61 -2.8547288381392284 -1.0335480626488394 -1.7699088669261025
62 4.75351356271413 -1.4206014062289216 0.7045992562500532
63 1.0583220467712755 -1.5317982454484123 -2.5318845831331114
64 2.4581451454518572 3.9122306952632013 0.7307215757440646
