ITEM: TIMESTEP
10000
ITEM: NUMBER OF ATOMS
64
ITEM: BOX BOUNDS xy xz yz pp pp pp
0.0000000000000000e+00 1.0560000000000285e+01 0.0000000000000000e+00
0.0000000000000000e+00 9.1452282639639186e+00 0.0000000000000000e+00
0.0000000000000000e+00 9.9800000000000004e+00 0.0000000000000000e+00
ITEM: ATOMS id type x y z
1 1 1.34186 5.49987 4.00235
2 1 1.35119 5.33864 8.5797
3 1 0.00562609 7.68447 3.41204
4 1 10.276 7.44656 9.15785
5 1 6.43673 0.857942 3.79555
6 1 6.81405 1.04901 8.50918
7 1 5.34046 3.18192 3.44131
8 1 5.2103 3.1311 8.67977
9 1 1.42946 0.576694 3.4468
10 1 1.4024 0.73841 9.10705
11 1 0.164368 3.20566 3.63211
12 1 10.4213 2.9856 9.19852
13 1 4.04527 0.955515 4.15147
14 1 4.05047 0.801913 8.66883
15 1 2.60794 2.98988 3.38772
16 1 2.39144 2.97599 8.86016
17 1 6.88407 5.33297 4.11549
18 1 6.56488 5.41262 8.93022
19 1 5.34816 7.86375 3.74926
20 1 5.41141 7.68415 8.67562
21 1 9.39881 5.48814 3.61555
22 1 9.39972 5.26868 8.68108
23 1 7.88573 7.73127 3.47292
24 1 7.92215 7.75465 8.35339
25 1 3.93541 5.25981 4.18555
26 1 3.89564 5.19541 8.59725
27 1 2.83321 7.58603 3.71741
28 1 2.6447 7.33833 8.61374
29 1 9.30241 0.914175 3.54831
30 1 9.51423 0.811526 8.72095
31 1 8.05606 3.03182 3.99974
32 1 7.9478 3.21426 8.22135
33 1 5.29889 1.40586 1.38418
34 1 5.52583 1.54134 6.33264
35 1 4.00029 3.69067 1.13894
36 1 3.69303 3.5146 6.11052
37 1 2.61499 5.924 1.22909
38 1 2.83838 6.55385 6.04064
39 1 1.2831 8.20709 1.2503
40 1 1.20512 8.53979 5.90711
41 1 10.5373 1.58935 1.21203
42 1 10.4613 1.69899 6.68601
43 1 2.78225 1.39187 1.10001
44 1 2.29741 1.45663 6.25854
45 1 1.28083 3.82144 1.23681
46 1 1.13618 3.96544 6.35018
47 1 10.3676 6.2649 1.31822
48 1 0.129249 6.21149 6.39927
49 1 9.21004 3.86927 1.3587
50 1 9.22326 3.82682 6.00533
51 1 7.9445 5.92079 1.3149
52 1 7.8759 5.83509 6.41274
53 1 6.38627 8.16279 0.985841
54 1 6.76171 8.3744 6.1668
55 1 8.95028 8.49554 0.969201
56 1 9.20942 8.36776 5.72453
57 1 7.74427 1.3956 1.372
58 1 8.09723 1.47224 6.32775
59 1 6.8009 3.68606 1.17871
60 1 6.37482 3.90775 6.2212
61 1 5.18598 5.7568 1.96909
62 1 5.29937 5.93162 6.48433
63 1 3.9316 7.94259 1.04942
64 1 3.79942 8.61812 6.63675
