BEGIN_CFG
 Size
    64
 Supercell
        10.480000      0.000000      0.000000
         0.000000      9.075946      0.000000
         0.000000      0.000000     10.300000
 AtomData:  id type       cartes_x      cartes_y      cartes_z           fx          fy          fz
             1    0       1.331200      5.368270      3.926300    -0.114621   -0.245606   -0.021319
             2    0       1.370710      5.388720      8.842490     0.219519   -0.172425    0.231320
             3    0      10.395020      7.575500      4.072990     0.002483    0.157144   -0.327528
             4    0       0.070870      7.589370      9.121100     0.046977    0.205587   -0.056979
             5    0       6.566140      0.660790      4.220830     0.017826    0.513721   -0.170830
             6    0       6.511650      0.716740      8.890810     0.213899   -0.111025    0.147736
             7    0       5.188110      3.018990      3.789650     0.166770   -0.020109    0.106476
             8    0       5.282890      2.998040      8.940500     0.136188    0.306473    0.004576
             9    0       1.211900      0.712180      3.987150     0.133606    0.618630   -0.249739
            10    0       1.511010      0.854720      9.230310    -0.552151   -0.292706   -0.209342
            11    0      10.454180      3.103870      3.512150    -0.009364    0.000563    0.220103
            12    0       0.050160      3.001890      8.997240     0.179373   -0.023861   -0.235039
            13    0       3.925130      0.769430      3.841140    -0.246818    0.144966    0.006675
            14    0       4.023090      0.870990      9.396290    -0.035661   -0.325761   -0.238344
            15    0       2.532670      3.141920      3.767150     0.108709   -0.318483   -0.009515
            16    0       2.691200      3.064910      8.598360     0.079827   -0.136754    0.160392
            17    0       6.577020      5.370550      3.723160    -0.044086   -0.123820   -0.040702
            18    0       6.570640      5.239640      9.046740     0.065349   -0.288211   -0.062214
            19    0       5.148950      7.628660      4.126510     0.357335    0.155089   -0.278273
            20    0       5.235100      7.523720      9.229350     0.038229    0.147808   -0.246190
            21    0       9.216430      5.384570      3.498020    -0.016138   -0.325928    0.235264
            22    0       9.342760      5.323630      8.871550    -0.549004    0.060922    0.126619
            23    0       7.849450      7.502800      4.160100    -0.041919    0.242823   -0.097403
            24    0       7.825320      7.439800      9.231490     0.366651    0.410929   -0.242808
            25    0       3.996710      5.490040      3.694870    -0.364675   -0.585617   -0.135475
            26    0       4.000130      5.261890      8.623460     0.100669    0.108069    0.408146
            27    0       2.480170      7.633190      3.710030     0.356320   -0.081452    0.094348
            28    0       2.749760      7.596480      9.303940    -0.260772   -0.055586   -0.285611
            29    0       9.127760      0.787330      4.271800    -0.199213    0.183382   -0.305323
            30    0       9.308840      0.739910      8.942480    -0.147599   -0.177736   -0.058371
            31    0       7.895600      3.091150      3.813740     0.046322   -0.312956    0.072419
            32    0       7.928340      3.015700      9.142810    -0.416979   -0.091704   -0.273509
            33    0       5.340870      1.362130      1.509370    -0.079302   -0.035476   -0.052744
            34    0       5.006280      1.608950      6.441040     0.662447   -0.028977    0.079371
            35    0       3.947940      3.671380      1.460230    -0.060866    0.250484   -0.148657
            36    0       3.840370      3.976360      6.088500    -0.027853   -0.607753    0.071341
            37    0       2.603000      5.982410      1.407160     0.258492   -0.244324   -0.129004
            38    0       2.596110      6.197210      6.627990    -0.517277   -0.119088   -0.146942
            39    0       1.392310      8.279840      1.271520    -0.484522    0.171102   -0.018705
            40    0       1.299930      8.338210      6.316210    -0.347294    0.254022    0.287538
            41    0      10.449120      1.424330      1.547660     0.363472    0.069010   -0.125276
            42    0       0.027780      1.607830      6.423150    -0.438016   -0.218689    0.147872
            43    0       2.645530      1.508080      1.279530    -0.005327   -0.239925    0.384362
            44    0       2.531420      1.646150      6.172260     0.080144   -0.189873    0.070618
            45    0       1.428060      3.668680      0.822920    -0.147402    0.315965    0.271046
            46    0       1.251300      3.845990      6.468720    -0.133662    0.238761   -0.214012
            47    0       0.083620      5.994030      1.160140    -0.229497    0.023427    0.034765
            48    0      10.471820      6.071750      6.191040    -0.335233   -0.205572    0.345368
            49    0       9.198640      3.752340      0.940990     0.058032    0.020788    0.575231
            50    0       9.107100      3.793690      6.711730    -0.064816   -0.137814   -0.362364
            51    0       7.902660      6.026720      1.362140    -0.074189   -0.207160   -0.192952
            52    0       7.747510      5.949300      6.693980     0.117939    0.243366   -0.163365
            53    0       6.557900      8.216580      1.247620     0.025866    0.079098    0.201268
            54    0       6.457400      8.165200      6.632650     0.051621    0.479604    0.053830
            55    0       9.159890      8.313310      1.289100     0.366408   -0.455121    0.104338
            56    0       9.133450      8.313490      6.615350     0.002633   -0.102577    0.107252
            57    0       7.985480      1.371430      0.998270    -0.614085    0.398584    0.203996
            58    0       7.732590      1.512580      6.724830     0.078271    0.144933   -0.311121
            59    0       6.517310      3.561360      1.469650     0.529007    0.375870   -0.312026
            60    0       6.483240      3.814520      5.998930     0.119280   -0.173399    0.371975
            61    0       5.314500      5.825190      1.025830    -0.325466    0.248187    0.257480
            62    0       5.026250      6.121850      6.199240     0.859448   -0.059723    0.266575
            63    0       3.972870      8.208360      1.510780     0.245076    0.015128   -0.084788
            64    0       3.778840      8.435630      6.466950     0.429619    0.130780    0.158169
 Energy
        -68.360883880000
 PlusStress:  xx          yy          zz          yz          xz          xy
         6.55341     7.32080     4.57084    -0.09405     1.12065     0.84981
 Feature   EFS_by	VASP
END_CFG

BEGIN_CFG
 Size
    64
 Supercell
        10.520000      0.000000      0.000000
         0.000000      9.110587      0.000000
         0.000000      0.000000     10.100000
 AtomData:  id type       cartes_x      cartes_y      cartes_z           fx          fy          fz
             1    0       1.402150      5.312620      3.748700    -0.773223    0.037646   -0.356536
             2    0       1.229370      5.353220      8.589700     0.634871   -0.126250    0.059957
             3    0       0.086660      7.618740      3.573730    -0.601057   -0.112578    0.105773
             4    0       0.031470      7.491080      8.791110     0.211941    0.464173    0.126160
             5    0       6.542670      0.823020      4.074080     0.013235   -0.471559   -0.359252
             6    0       6.652740      0.812080      8.743920    -0.293915    0.017713   -0.051992
             7    0       5.171520      3.032080      3.965840     0.256280   -0.419756   -0.156907
             8    0       5.035400      3.035620      8.957950     0.694146   -0.449553   -0.058173
             9    0       1.199230      0.821170      3.684090     0.499030   -0.075121    0.303824
            10    0       1.495920      0.612510      9.007250    -0.756329    0.142860   -0.512789
            11    0      10.413220      3.151150      3.890480     0.060430   -0.304284   -0.327286
            12    0       0.090220      3.069320      8.633980    -0.455045   -0.191093    0.177400
            13    0       3.887600      0.728210      3.670560    -0.155668   -0.133987    0.070581
            14    0       4.107900      0.709270      8.920550    -0.093677    0.218152    0.031379
            15    0       2.528460      3.048960      3.348900    -0.076760   -0.709671    0.426995
            16    0       2.527240      3.029500      8.860590     0.284812    0.394160   -0.128965
            17    0       6.541260      5.206390      3.855340     0.086734    0.168757    0.156819
            18    0       6.494000      5.128770      9.198460     0.267631    0.843230   -0.230201
            19    0       5.273560      7.483770      3.900280    -0.135891    0.377260    0.037898
            20    0       5.378740      7.577600      8.714770     0.081297   -0.263941    0.241736
            21    0       9.086020      5.344340      4.003530     0.383476   -0.047741   -0.342270
            22    0       9.058520      5.348300      8.715270     0.235878    0.046555   -0.148180
            23    0       7.982180      7.604230      3.554210    -0.199002    0.130865    0.026769
            24    0       7.830340      7.636470      8.856240     0.024512   -0.459248    0.301047
            25    0       3.839410      5.074080      4.044040     0.530040    0.878881   -0.078773
            26    0       4.067380      5.299770      8.843700    -0.914113    0.321922   -0.110881
            27    0       2.604510      7.544310      3.662320     0.449727    0.407196    0.039256
            28    0       2.876590      7.595200      8.825890    -0.884944   -0.669296    0.102728
            29    0       9.170990      0.723760      4.133300     0.104780   -0.094604   -0.321656
            30    0       9.269230      0.839700      8.842200     0.281120    0.085697    0.236660
            31    0       7.858970      2.994150      3.573140     0.167594    0.038591    0.006995
            32    0       7.853010      3.045430      8.879630     0.102764   -0.227784   -0.306848
            33    0       5.186110      1.487270      1.358460     0.181095   -0.352707   -0.050890
            34    0       5.121520      1.592380      6.172870     0.417882   -0.357622    0.243875
            35    0       4.069720      3.769030      1.376580    -0.534511    0.154628   -0.255901
            36    0       3.905630      3.806420      6.425070    -0.211162    0.467797    0.091868
            37    0       2.725180      5.994340      1.307230    -0.580862   -0.529194   -0.199785
            38    0       2.795720      6.313350      6.121360    -0.010892   -0.793095    0.304133
            39    0       1.275680      8.365380      1.222840    -0.006326    0.087852   -0.015555
            40    0       1.348950      8.379350      6.250970    -0.289314    0.398719    0.050252
            41    0      10.443720      1.595600      1.548110    -0.243030   -0.163048   -0.241518
            42    0      10.505180      1.506320      6.421040     0.263316   -0.212192   -0.060237
            43    0       2.605550      1.578180      0.957940     0.162737   -0.383443    0.646576
            44    0       2.578050      1.640010      6.526440    -0.146151   -0.403908   -0.217856
            45    0       1.309510      3.761690      1.144990    -0.165778    0.539169   -0.186612
            46    0       1.241960      3.815510      6.028300     0.943013   -0.177602    0.338356
            47    0       0.037320      6.107670      1.129850    -0.070725   -0.262697    0.107239
            48    0       0.231020      6.091780      5.999240    -0.747121    0.494229    0.385293
            49    0       9.250620      3.843610      0.810350     0.031258   -0.127833    0.563362
            50    0       9.297590      3.845520      6.354510    -0.761344    0.211598    0.097382
            51    0       7.884650      6.036440      1.214780     0.207592    0.148836    0.123885
            52    0       7.941860      6.168370      6.222210     0.304792   -0.590347    0.041371
            53    0       6.453850      8.352190      1.422160     0.218236    0.078882   -0.091961
            54    0       6.686210      8.333510      6.278470    -0.596890    0.604456   -0.094207
            55    0       9.134690      8.357800      0.936860     0.130502    0.123611    0.462060
            56    0       9.111480      8.357860      6.813920     0.856859    0.065041   -0.838012
            57    0       7.822300      1.514090      1.064310     0.171159   -0.125423    0.226029
            58    0       7.956170      1.621980      6.245050    -0.536011    0.054357    0.274993
            59    0       6.549160      3.725470      1.353380     0.456979   -0.040043    0.107165
            60    0       6.486000      3.801700      6.696780     0.455298    0.053825   -0.220721
            61    0       5.330680      5.995410      1.627750    -0.148641    0.176108   -0.228687
            62    0       5.431610      6.133510      6.297930    -0.596551   -0.304826    0.082129
            63    0       3.866890      8.090820      1.218300     0.525485    1.126173    0.053472
            64    0       3.948950      8.461410      6.588240     0.288432    0.221504   -0.458764
 Energy
        -67.651502040000
 PlusStress:  xx          yy          zz          yz          xz          xy
        11.93150    10.93016     9.15103     0.59511     1.38229    -0.27430
 Feature   EFS_by	VASP
END_CFG

BEGIN_CFG
 Size
    64
 Supercell
        10.640000      0.000000      0.000000
         0.000000      9.214510      0.000000
         0.000000      0.000000     10.500000
 AtomData:  id type       cartes_x      cartes_y      cartes_z           fx          fy          fz
             1    0       1.283370      5.539200      3.831690     0.005754   -0.261654    0.307930
             2    0       1.458720      5.565450      9.374850    -0.782113   -0.262710   -0.104166
             3    0      10.577380      7.580220      4.127980     0.308389   -0.143210   -0.248334
             4    0      10.610740      7.785350      8.969780    -0.348647   -0.224919   -0.009145
             5    0       6.803760      0.628640      4.103720     0.339309    0.187328   -0.176378
             6    0       6.726340      0.767640      9.427670    -0.462547    0.355448   -0.167305
             7    0       5.588820      2.987070      3.781620    -0.314243    0.011304    0.005061
             8    0       5.171280      3.257960     10.038880     0.327456   -0.272246   -1.719033
             9    0       1.288340      0.788590      3.671710     0.173373   -0.750221    0.160605
            10    0       1.324290      0.716850      9.517060     0.310882    0.519822   -0.748396
            11    0       0.045780      2.837130      4.140190    -0.328231    0.772296    0.171077
            12    0      10.636670      3.363910      9.355140     0.144696   -0.468091   -0.092187
            13    0       4.228480      0.747420      3.788840    -0.722187   -0.050692   -0.142722
            14    0       3.895110      0.723330      9.926160    -0.001351    0.761979   -0.893906
            15    0       2.515990      3.346560      3.691050     0.301923   -0.410801    0.117815
            16    0       2.537110      3.243720      9.855330     0.110668   -0.409444   -0.404296
            17    0       6.781060      5.273370      3.759260    -0.189761    0.405776    0.200496
            18    0       6.519110      5.388080      8.897310    -0.124114    0.180638    0.313276
            19    0       5.177920      7.571020      3.896200     0.789132   -0.443532   -0.500372
            20    0       5.277210      7.870540      9.228500     0.001248   -0.212358   -0.161811
            21    0       9.315300      5.233480      3.807510     0.282409    0.200124    0.067651
            22    0       9.202600      5.428510      9.087190     0.250010    0.327799    0.017604
            23    0       7.897510      7.622600      3.746720     0.276123   -0.474054    0.006965
            24    0       7.905400      7.672050      9.187830     0.205667    0.078298   -0.087972
            25    0       4.130830      5.244980      3.847050    -0.053490    0.721931   -0.335884
            26    0       3.937810      5.605280      9.283890     0.425658   -0.338129    0.112929
            27    0       2.633660      7.704880      3.875810    -0.159120    0.056440   -0.132871
            28    0       2.547040      7.817560      8.960930     0.571728    0.161015   -0.065808
            29    0       9.451430      0.536220      4.018340    -0.561754    0.724373   -0.225116
            30    0       9.283730      0.890110      9.252020    -0.034670    0.009080   -0.306764
            31    0       8.157230      2.981130      3.965040     0.054580   -0.289972   -0.141464
            32    0       7.750230      3.275430      9.257710     0.159392   -0.796054    0.068694
            33    0       5.287110      1.544180      1.441510    -0.052344   -0.024069    0.133014
            34    0       5.366940      1.506020      5.988780    -0.211695   -0.125158    0.897548
            35    0       3.985840      3.875440      1.504010    -0.506630    0.330493    0.659757
            36    0       4.083120      3.820990      5.895970    -0.053773   -0.274394    0.630058
            37    0       2.562870      6.089770      1.390920     0.403565    0.220137    0.037574
            38    0       2.867890      6.040660      6.800120    -0.139674    0.400187   -0.032482
            39    0       1.223250      8.429040      1.315920    -0.064778   -0.074130    0.208218
            40    0       1.531580      8.431810      6.473140     0.018841    0.140138   -0.100621
            41    0       0.011390      1.518720      0.899580    -0.423381    0.672606    0.925634
            42    0       0.052560      1.286030      6.736480     0.308552    0.375690    0.086482
            43    0       2.567900      1.552440      1.711990     0.269139    0.061037   -0.576910
            44    0       2.574150      1.777310      5.710910    -0.094824   -0.599661    0.840557
            45    0       1.122380      4.010970      1.660310    -0.119182   -0.896392   -0.380009
            46    0       1.515580      4.018310      6.626100    -0.475791   -0.784902    0.029206
            47    0      10.605350      6.167300      1.400500    -0.648747    0.582459   -0.155503
            48    0       0.072700      6.143100      6.634880    -0.032117   -0.187202   -0.027044
            49    0       9.170350      3.977500      1.147050     0.203208   -0.480030    0.096914
            50    0       9.395140      3.632970      6.855570     0.509281    0.668515   -0.109776
            51    0       7.878750      6.214260      1.090640     0.637886    0.193194    0.104427
            52    0       8.045230      5.963140      6.493970     0.037494    0.213337   -0.050716
            53    0       6.439770      8.612020      1.723040     0.349448   -0.723440   -0.289523
            54    0       6.699850      8.412510      6.688850    -0.179396    0.037490    0.025228
            55    0       9.187920      8.509850      1.114600     0.163892   -0.434274    0.134483
            56    0       9.266690      8.280660      6.225830    -0.137286    0.187438    0.501922
            57    0       7.958390      1.493090      1.246400     0.143123    0.492022    0.229678
            58    0       8.116920      1.579530      6.569120    -0.436345   -0.913166    0.010105
            59    0       6.627010      3.822280      1.517540     0.594424    0.068533    0.100158
            60    0       6.743390      3.683830      6.392340    -0.187551    0.154531    0.102475
            61    0       5.479240      6.123280      1.158970    -0.967329    0.262533    0.115727
            62    0       5.440200      5.892810      6.647170    -0.167628    0.486771   -0.295987
            63    0       3.810350      8.273440      1.216940     0.402146   -0.229477    0.541018
            64    0       4.129900      8.186830      6.047830    -0.098697    0.533625    0.722214
 Energy
        -65.912955600000
 PlusStress:  xx          yy          zz          yz          xz          xy
        -5.95244    -4.55613     1.45182     0.99326    -1.51403    -1.17775
 Feature   EFS_by	VASP
END_CFG

BEGIN_CFG
 Size
    64
 Supercell
        10.520000      0.000000      0.000000
         0.000000      9.110587      0.000000
         0.000000      0.000000     10.020000
 AtomData:  id type       cartes_x      cartes_y      cartes_z           fx          fy          fz
             1    0       1.293900      5.410210      3.832940    -0.142879   -0.213047    0.008684
             2    0       1.433500      5.151770      8.747620    -0.373160    0.485288   -0.048762
             3    0      10.371210      7.532790      3.910240     0.993420    0.694213   -0.086163
             4    0      10.421520      7.523200      8.857940     0.612951   -0.188356    0.108286
             5    0       6.656370      0.942340      4.036800    -0.528626   -0.195669   -0.394731
             6    0       6.525120      0.775930      8.876720    -0.215874   -0.534673   -0.055551
             7    0       5.204780      3.339400      3.601010     0.224160   -0.664550    0.210662
             8    0       5.302480      3.007250      8.807270    -0.285398   -0.284155   -0.209393
             9    0       1.264830      0.660640      3.765870     0.061288    0.388834   -0.032430
            10    0       1.218460      0.565260      9.008430     0.185727    0.352654   -0.150177
            11    0      10.503680      3.002010      3.920670     0.325030    0.470645   -0.203566
            12    0      10.516940      2.759610      8.673880    -0.175347    0.525665    0.043220
            13    0       3.905220      1.015700      3.970940     0.218414   -0.257851   -0.168045
            14    0       3.871780      0.728590      8.968170     0.279799   -0.154891   -0.189733
            15    0       2.651340      3.262060      3.509320    -0.563908   -0.334026    0.262882
            16    0       2.666320      2.959140      8.850920     0.047641   -0.277190   -0.315399
            17    0       6.473870      5.515830      3.660920     0.307552   -0.064743    0.111125
            18    0       6.580080      5.120350      9.138790     0.445125    0.390951   -0.346851
            19    0       5.305080      7.849520      3.526660    -0.111519   -0.079489    0.286337
            20    0       5.450310      7.440940      8.590460    -0.562067    0.454897    0.123311
            21    0       9.267030      5.481520      3.542670    -0.447166   -1.254854   -0.184395
            22    0       9.215380      5.263460      8.476430     0.148030   -1.103561    0.390692
            23    0       7.889890      7.648310      3.675670    -0.369452    0.234553   -0.011648
            24    0       7.949670      7.299120      8.541320    -0.610954    0.812797    0.084613
            25    0       3.848810      5.525870      3.785260     0.390680   -0.184526    0.035042
            26    0       4.040600      5.248700      8.696010    -0.212987    0.190432   -0.085842
            27    0       2.695730      7.672550      3.785730    -0.357675    0.279340   -0.037064
            28    0       2.668090      7.574790      8.834010     0.066044   -0.281058   -0.116581
            29    0       9.182880      0.796890      3.783970     0.100882    0.019930   -0.282751
            30    0       9.035450      0.528340      8.707950     0.341401    0.443761   -0.046498
            31    0       7.876310      3.189550      3.926480     0.118503    0.064722   -0.556379
            32    0       7.903720      2.899310      8.766900     0.258429    0.362360   -0.069608
            33    0       5.173330      1.516760      1.385310     0.154150    0.082027    0.005148
            34    0       5.322630      1.412970      6.329410    -0.144432    0.293896    0.195929
            35    0       3.947530      3.810140      1.173580     0.046038    0.022622   -0.063972
            36    0       4.021230      3.749740      6.084670    -0.033369    0.058782    0.161965
            37    0       2.614250      6.011750      1.268320    -0.031409   -0.017969    0.004048
            38    0       2.696820      6.120430      6.364980    -0.156371   -0.168580   -0.017505
            39    0       1.339570      8.205060      1.340590    -0.255834    0.341923    0.058794
            40    0       1.218110      8.408720      6.183210     0.572110    0.039501    0.175654
            41    0      10.487390      1.638040      1.353950    -0.025540   -0.680532    0.059973
            42    0      10.492900      1.555410      6.198750     0.268861   -0.012167    0.146091
            43    0       2.611930      1.468310      1.513430    -0.097831   -0.219579   -0.194779
            44    0       2.703440      1.585280      6.322820    -0.377029   -0.339598    0.182839
            45    0       1.340170      3.695900      0.978390    -0.250685    0.270295    0.340430
            46    0       1.373180      3.787670      6.331580    -0.121928    0.100085   -0.159754
            47    0       0.010030      5.935550      1.061060    -0.123122    0.147110    0.145994
            48    0       0.108470      6.130940      6.499640    -0.019416   -0.218672   -0.340870
            49    0       9.101100      3.728850      1.248310     0.364548    0.647491   -0.041207
            50    0       9.137030      3.868510      6.117940     0.803232   -0.332412    0.281132
            51    0       7.920950      6.244140      1.232530     0.019222   -0.425395   -0.013502
            52    0       7.996550      6.064930      6.040880    -0.406500    0.066667   -0.042707
            53    0       6.657360      8.496620      1.220610    -0.229805   -0.272523   -0.055196
            54    0       6.490310      8.191160      6.174640     0.345636    0.238753    0.069703
            55    0       9.202310      8.475850      1.207770     0.327668   -0.082654    0.090171
            56    0       9.175600      8.349400      6.125550     0.003416   -0.120668    0.246242
            57    0       7.748890      1.648680      1.452340     0.358369   -0.319798   -0.035070
            58    0       7.928370      1.376930      6.306650    -0.192946    0.464499    0.230158
            59    0       6.553260      3.896530      1.418890    -0.024123   -0.006042    0.028571
            60    0       6.671820      3.717620      6.157680    -0.658517    0.081174    0.373137
            61    0       5.202250      6.176600      1.161320     0.373654   -0.463865    0.032380
            62    0       5.292280      5.963370      6.162440     0.051690    0.022563    0.069172
            63    0       4.029820      8.280230      1.279000    -0.588221    0.619574   -0.193972
            64    0       3.920760      8.335780      6.165800    -0.119579    0.085086    0.187717
 Energy
        -68.213307410000
 PlusStress:  xx          yy          zz          yz          xz          xy
        11.81306    13.87047     6.13039     0.37851    -0.91985    -1.29545
 Feature   EFS_by	VASP
END_CFG

BEGIN_CFG
 Size
    64
 Supercell
        10.480000      0.000000      0.000000
         0.000000      9.075946      0.000000
         0.000000      0.000000     10.420000
 AtomData:  id type       cartes_x      cartes_y      cartes_z           fx          fy          fz
             1    0       1.287260      5.197090      4.142330    -0.008757    0.084212   -0.137031
             2    0       1.425560      5.315890      8.976980    -0.302040   -0.179278    0.142201
             3    0       0.023280      7.544490      3.658810    -0.420172   -0.286592    0.090713
             4    0       0.131310      7.601440      9.312300    -0.440111   -0.541901   -0.209281
             5    0       6.385830      0.890430      4.059770     0.560570   -0.399060   -0.033210
             6    0       6.616250      0.665510      9.057990    -0.101772    0.195955    0.154144
             7    0       5.179660      3.149980      3.898750     0.003512   -0.425205    0.186703
             8    0       5.324930      2.895760      9.091330    -0.238166    0.087312    0.092285
             9    0       1.285460      0.692060      3.767370    -0.175754    0.596542    0.034561
            10    0       1.266020      0.646300      9.057390     1.001656    0.607551   -0.065792
            11    0      10.338260      2.997750      3.574120     0.119770   -0.110525    0.382918
            12    0       0.066620      2.987940      9.169820     0.076161    0.207320   -0.130941
            13    0       3.834590      0.744070      3.731540    -0.046695    0.331842    0.092801
            14    0       4.022460      0.710850      9.290270    -0.183783   -0.236495   -0.246316
            15    0       2.528670      2.956710      4.353800     0.133767   -0.101256   -0.157735
            16    0       2.733500      3.092150      8.991920    -0.366695   -0.459369    0.312800
            17    0       6.468110      5.413510      4.052000     0.381217   -0.112669   -0.052100
            18    0       6.537390      5.147570      9.276320     0.431527    0.490615   -0.029071
            19    0       5.242330      7.631650      3.627370    -0.016609   -0.092670    0.349894
            20    0       5.292600      7.511210      9.356300    -0.247533   -0.044434   -0.226788
            21    0       9.173150      5.288160      4.090320     0.026575    0.273865   -0.272585