 # Something
 4 atoms
 1 atom types
 0   4.2500000000000005      xlo xhi
 0   4.2500000000000005      ylo yhi
 0   4.2500000000000005      zlo zhi
   0.0000000000000000        0.0000000000000000        0.0000000000000000      xy xz yz
 Atoms

           1           1   0.0000000000000000        0.0000000000000000        0.0000000000000000
           2           1   2.1250000000000003        0.0000000000000000        2.1250000000000003
           3           1   0.0000000000000000        2.1250000000000003        2.1250000000000003
           4           1   2.1250000000000003        2.1250000000000003        0.0000000000000000
