LAMMPS (29 Sep 2021 - Update 1)
Reading data file ...
  triclinic box = (0.0000000 0.0000000 0.0000000) to (10.600000 9.1798693 9.9000000) with tilt (0.0000000 0.0000000 0.0000000)
  1 by 1 by 1 MPI processor grid
  reading atoms ...
  64 atoms
  read_data CPU = 0.001 seconds
Neighbor list info ...
  update every 1 steps, delay 0 steps, check yes
  max neighbors/atom: 2000, page size: 100000
  master list distance cutoff = 7
  ghost atom cutoff = 7
  binsize = 3.5, bins = 4 3 3
  1 neighbor lists, perpetual/occasional/extra = 1 0 0
  (1) pair mlip, perpetual
      attributes: full, newton on
      pair build: full/bin/atomonly
      stencil: full/bin/3d
      bin: standard
Setting up Verlet run ...
  Unit style    : metal
  Current step  : 0
  Time step     : 0.001
Per MPI rank memory allocation (min/avg/max) = 3.089 | 3.089 | 3.089 Mbytes
Step Time Temp Volume Press 
       0            0         1380    963.33548    11001.672 
       1        0.001    1379.0945    963.33548    11034.148 
       2        0.002    1376.3879    963.33548    11131.197 
       3        0.003    1371.9029    963.33548    11292.131 
       4        0.004    1365.6685    963.33548    11514.792 
       5        0.005    1357.7203    963.33548    11792.018 
       6        0.006    1348.1014    963.33548     12119.96 
       7        0.007    1336.8593    963.33548    12500.503 
       8        0.008    1324.0455    963.33548      12935.5 
       9        0.009    1309.7156    963.33548    13424.283 
      10         0.01    1293.9297    963.33548    13964.081 
Loop time of 0.213519 on 1 procs for 10 steps with 64 atoms

Performance: 4.046 ns/day, 5.931 hours/ns, 46.834 timesteps/s
96.4% CPU use with 1 MPI tasks x no OpenMP threads

MPI task timing breakdown:
Section |  min time  |  avg time  |  max time  |%varavg| %total
---------------------------------------------------------------
Pair    | 0.21341    | 0.21341    | 0.21341    |   0.0 | 99.95
Neigh   | 0          | 0          | 0          |   0.0 |  0.00
Comm    | 3.2857e-05 | 3.2857e-05 | 3.2857e-05 |   0.0 |  0.02
Output  | 3.9687e-05 | 3.9687e-05 | 3.9687e-05 |   0.0 |  0.02
Modify  | 2.4567e-05 | 2.4567e-05 | 2.4567e-05 |   0.0 |  0.01
Other   |            | 1.061e-05  |            |       |  0.00

Nlocal:        64.0000 ave          64 max          64 min
Histogram: 1 0 0 0 0 0 0 0 0 0
Nghost:        886.000 ave         886 max         886 min
Histogram: 1 0 0 0 0 0 0 0 0 0
Neighs:         0.00000 ave           0 max           0 min
Histogram: 1 0 0 0 0 0 0 0 0 0
FullNghs:      5504.00 ave        5504 max        5504 min
Histogram: 1 0 0 0 0 0 0 0 0 0

Total # of neighbors = 5504
Ave neighs/atom = 86.000000
Neighbor list builds = 0
Dangerous builds = 0
Setting up Verlet run ...
  Unit style    : metal
  Current step  : 10
  Time step     : 0.001
Per MPI rank memory allocation (min/avg/max) = 3.089 | 3.089 | 3.089 Mbytes
Step Time Temp Volume Press 
      10         0.01    1293.9297    963.33548    13964.081 
      11        0.011    1276.7524    963.33548    14552.522 
      12        0.012    1258.2526    963.33548     15189.31 
      13        0.013    1238.5032    963.33548     15871.85 
      14        0.014    1217.5811    963.33548     16598.36 
      15        0.015    1195.5672    963.33548     17366.05 
      16        0.016    1172.5459    963.33548    18172.271 
      17        0.017    1148.6051    963.33548    19014.537 
      18        0.018     1123.836    963.33548    19889.856 
      19        0.019    1098.3328    963.33548     20795.01 
      20         0.02    1072.1919    963.33548    21726.889 
      21        0.021    1045.5125    963.33548    22681.916 
      22        0.022    1018.3953    963.33548    23656.769 
      23        0.023    990.94236    963.33548    24648.019 
      24        0.024    963.25686    963.33548    25652.055 
      25        0.025    935.44222    963.33548    26665.188 
      26        0.026     907.6017    963.33548    27683.778 
      27        0.027    879.83784    963.33548     28704.19 
      28        0.028    852.25177    963.33548     29722.65 
      29        0.029    824.94272    963.33548    30736.106 
      30         0.03    798.00734    963.33548    31741.133 
      31        0.031    771.53888    963.33548    32733.447 
      32        0.032    745.62681    963.33548    33710.865 
      33        0.033    720.35635    963.33548     34670.21 
      34        0.034    695.80748    963.33548     35608.06 
      35        0.035    672.05433    963.33548    36520.833 
      36        0.036    649.16486    963.33548     37406.59 
      37        0.037    627.20055    963.33548    38263.457 
      38        0.038    606.21568    963.33548    39087.999 
      39        0.039    586.25709    963.33548    39878.885 
      40         0.04    567.36421    963.33548    40634.986 
      41        0.041    549.56872    963.33548    41354.489 
      42        0.042    532.89449    963.33548    42036.915 
      43        0.043    517.35768    963.33548    42681.846 
      44        0.044    502.96669    963.33548    43288.003 
      45        0.045    489.72225    963.33548    43855.166 
      46        0.046    477.61786    963.33548    44382.731 
      47        0.047    466.64087    963.33548    44866.309 
      48        0.048    456.77194    963.33548        45311 
      49        0.049    447.98443    963.33548    45716.563 
      50         0.05    440.24596    963.33548    46084.554 
      51        0.051    433.51931    963.33548    46415.671 
      52        0.052    427.76284    963.33548    46711.204 
      53        0.053    422.93108    963.33548     46971.95 
      54        0.054     418.9753    963.33548    47198.742 
      55        0.055    415.84412    963.33548    47393.081 
      56        0.056    413.48431    963.33548     47557.22 
      57        0.057    411.84129    963.33548    47692.679 
      58        0.058    410.85968    963.33548    47800.232 
      59        0.059    410.48391    963.33548     47880.92 
      60         0.06    410.65875    963.33548    47937.979 
      61        0.061    411.32981    963.33548    47973.892 
      62        0.062    412.44385    963.33548    47990.902 
      63        0.063    413.94923    963.33548    47990.024 
      64        0.064    415.79629    963.33548    47973.203 
      65        0.065    417.93761    963.33548    47942.046 
      66        0.066    420.32801    963.33548    47898.476 
      67        0.067    422.92495    963.33548    47844.526 
      68        0.068    425.68892    963.33548    47781.437 
      69        0.069    428.58327    963.33548    47710.539 
      70         0.07    431.57424    963.33548     47633.15 
      71        0.071    434.63097    963.33548    47550.044 
      72        0.072    437.72514    963.33548    47464.072 
      73        0.073    440.83119    963.33548    47373.954 
      74        0.074    443.92674    963.33548     47281.78 
      75        0.075     446.9922    963.33548    47187.831 
      76        0.076    450.01053    963.33548    47093.337 
      77        0.077    452.96693    963.33548    46997.106 
      78        0.078    455.84883    963.33548    46901.495 
      79        0.079    458.64598    963.33548    46807.562 
      80         0.08    461.35009    963.33548    46714.861 
      81        0.081    463.95461    963.33548    46623.558 
      82        0.082     466.4548    963.33548    46534.348 
      83        0.083    468.84746    963.33548    46447.179 
      84        0.084    471.13046    963.33548    46363.963 
      85        0.085    473.30281    963.33548    46283.841 
      86        0.086    475.36487    963.33548     46206.76 
      87        0.087    477.31812    963.33548    46132.695 
      88        0.088    479.16497    963.33548    46062.546 
      89        0.089    480.90884    963.33548    45995.186 
      90         0.09      482.554    963.33548    45929.365 
      91        0.091    484.10552    963.33548    45865.384 
      92        0.092    485.56936    963.33548    45803.872 
      93        0.093    486.95245    963.33548    45744.971 
      94        0.094    488.26257    963.33548    45687.518 
      95        0.095    489.50834    963.33548     45631.79 
      96        0.096    490.69962    963.33548    45577.513 
      97        0.097    491.84749    963.33548     45524.16 
      98        0.098    492.96398    963.33548    45470.254 
      99        0.099    494.06203    963.33548    45415.772 
     100          0.1    495.15563    963.33548    45361.261 
Loop time of 1.89464 on 1 procs for 90 steps with 64 atoms

Performance: 4.104 ns/day, 5.848 hours/ns, 47.502 timesteps/s
100.0% CPU use with 1 MPI tasks x no OpenMP threads

MPI task timing breakdown:
Section |  min time  |  avg time  |  max time  |%varavg| %total
---------------------------------------------------------------
Pair    | 1.8936     | 1.8936     | 1.8936     |   0.0 | 99.94
Neigh   | 0.00021109 | 0.00021109 | 0.00021109 |   0.0 |  0.01
Comm    | 0.00029213 | 0.00029213 | 0.00029213 |   0.0 |  0.02
Output  | 0.00032719 | 0.00032719 | 0.00032719 |   0.0 |  0.02
Modify  | 0.00016251 | 0.00016251 | 0.00016251 |   0.0 |  0.01
Other   |            | 7.359e-05  |            |       |  0.00

Nlocal:        64.0000 ave          64 max          64 min
Histogram: 1 0 0 0 0 0 0 0 0 0
Nghost:        886.000 ave         886 max         886 min
Histogram: 1 0 0 0 0 0 0 0 0 0
Neighs:         0.00000 ave           0 max           0 min
Histogram: 1 0 0 0 0 0 0 0 0 0
FullNghs:      6052.00 ave        6052 max        6052 min
Histogram: 1 0 0 0 0 0 0 0 0 0

Total # of neighbors = 6052
Ave neighs/atom = 94.562500
Neighbor list builds = 1
Dangerous builds = 0
Setting up Verlet run ...
  Unit style    : metal
  Current step  : 100
  Time step     : 0.001
Per MPI rank memory allocation (min/avg/max) = 3.089 | 3.089 | 3.089 Mbytes
Step Time Temp Volume Press 
     100          0.1    495.15563    963.33548    45361.261 
     110         0.11    509.38446    963.33548     44672.96 
     120         0.12    538.97346    963.33548     43437.48 
     130         0.13    582.33836    963.33548    41880.144 
     140         0.14    618.60156    963.33548    40677.842 
     150         0.15    634.38147    963.33548    40175.964 
     160         0.16    641.92364    963.33548    40066.878 
     170         0.17    659.33236    963.33548    39845.168 
     180         0.18    685.48455    963.33548     39344.52 
     190         0.19    708.24123    963.33548    38804.925 
     200          0.2    722.17845    963.33548    38491.994 
     210         0.21    731.42786    963.33548    38353.667 
     220         0.22     739.9291    963.33548    38290.161 
     230         0.23    741.38298    963.33548     38530.46 
     240         0.24    724.70558    963.33548    39439.421 
     250         0.25    689.56776    963.33548    41044.939 
     260         0.26    650.86989    963.33548    42791.675 
     270         0.27    626.68258    963.33548    44134.297 
     280         0.28    623.08153    963.33548    44754.942 
     290         0.29    639.90424    963.33548    44582.663 
     300          0.3    675.89559    963.33548    43719.658 
     310         0.31    715.67363    963.33548      42769.8 
     320         0.32    735.59763    963.33548    42481.063 
     330         0.33    729.20346    963.33548    42966.077 
     340         0.34    714.97893    963.33548    43669.197 
     350         0.35    717.49947    963.33548    43842.326 
     360         0.36    739.45723    963.33548      43511.7 
     370         0.37    755.97982    963.33548    43326.079 
     380         0.38    748.24642    963.33548    43766.106 
     390         0.39    730.55742    963.33548    44314.232 
     400          0.4    732.68068    963.33548    44081.098 
     410         0.41    763.20018    963.33548    42857.161 
     420         0.42    802.00246    963.33548    41298.007 
     430         0.43    826.25281    963.33548    40103.666 
     440         0.44    826.56575    963.33548    39595.532 
     450         0.45    803.94476    963.33548    39759.468 
     460         0.46    765.54612    963.33548    40419.329 
     470         0.47    720.82275    963.33548    41294.672 
     480         0.48    676.58694    963.33548    42108.494 
     490         0.49    637.18285    963.33548     42642.31 
     500          0.5    609.11139    963.33548    42733.543 
     510         0.51    598.97414    963.33548    42254.402 
     520         0.52    606.67318    963.33548    41227.332 
     530         0.53     622.2451    963.33548    40034.497 
     540         0.54    631.17299    963.33548    38979.613 
     550         0.55    630.06503    963.33548    38126.817 
     560         0.56    632.35392    963.33548    37171.427 
     570         0.57    649.89321    963.33548    35857.535 
     580         0.58    675.30257    963.33548    34434.057 
     590         0.59    689.25413    963.33548    33483.004 
     600          0.6    681.76093    963.33548    33283.927 
     610         0.61    663.25756    963.33548    33586.784 
     620         0.62    653.07505    963.33548    33806.182 
     630         0.63    655.76322    963.33548    33815.752 
     640         0.64    657.85052    963.33548    33922.229 
     650         0.65    649.24048    963.33548    34381.265 
     660         0.66    633.06643    963.33548    35151.297 
     670         0.67    617.33263    963.33548    35986.014 
     680         0.68    607.33248    963.33548    36644.729 
     690         0.69    604.28737    963.33548    37057.149 
     700          0.7    608.90992    963.33548    37197.788 
     710         0.71    624.85594    963.33548    36954.349 
     720         0.72     651.4279    963.33548    36457.801 
     730         0.73    675.25187    963.33548    36118.468 
     740         0.74    678.99297    963.33548    36476.241 
     750         0.75    659.10139    963.33548    37622.805 
     760         0.76    631.65789    963.33548    38925.423 
     770         0.77    620.46841    963.33548    39625.141 
     780         0.78    637.78429    963.33548    39319.322 
     790         0.79    677.92313    963.33548    38166.894 
     800          0.8     724.9554    963.33548    36691.679 
     810         0.81     762.9653    963.33548    35473.025 
     820         0.82    782.25777    963.33548    34971.905 
     830         0.83    778.72896    963.33548     35314.22 
     840         0.84    751.55683    963.33548    36601.978 
     850         0.85    705.12676    963.33548    38626.805 
     860         0.86    652.34527    963.33548    40892.773 
     870         0.87    612.28479    963.33548    42692.237 
     880         0.88    599.16977    963.33548    43566.768 
     890         0.89    614.17454    963.33548    43450.795 
     900          0.9    645.53362    963.33548    42729.291 
     910         0.91    673.67929    963.33548    42072.949 
     920         0.92    684.69296    963.33548    41864.204 
     930         0.93    680.53726    963.33548    42046.089 
     940         0.94    674.21934    963.33548     42282.14 
     950         0.95    677.58284    963.33548     42167.18 
     960         0.96    691.45743    963.33548    41767.538 
     970         0.97    705.48192    963.33548    41447.632 
     980         0.98    706.73638    963.33548    41620.179 
     990         0.99    688.10287    963.33548    42513.424 
    1000            1    652.99288    963.33548    43928.904 
Loop time of 19.8173 on 1 procs for 900 steps with 64 atoms

Performance: 3.924 ns/day, 6.116 hours/ns, 45.415 timesteps/s
100.0% CPU use with 1 MPI tasks x no OpenMP threads

MPI task timing breakdown:
Section |  min time  |  avg time  |  max time  |%varavg| %total
---------------------------------------------------------------
Pair    | 19.808     | 19.808     | 19.808     |   0.0 | 99.95
Neigh   | 0.003285   | 0.003285   | 0.003285   |   0.0 |  0.02
Comm    | 0.0030326  | 0.0030326  | 0.0030326  |   0.0 |  0.02
Output  | 0.00043525 | 0.00043525 | 0.00043525 |   0.0 |  0.00
Modify  | 0.0015862  | 0.0015862  | 0.0015862  |   0.0 |  0.01
Other   |            | 0.0006778  |            |       |  0.00

Nlocal:        64.0000 ave          64 max          64 min
Histogram: 1 0 0 0 0 0 0 0 0 0
Nghost:        886.000 ave         886 max         886 min
Histogram: 1 0 0 0 0 0 0 0 0 0
Neighs:         0.00000 ave           0 max           0 min
Histogram: 1 0 0 0 0 0 0 0 0 0
FullNghs:      6128.00 ave        6128 max        6128 min
Histogram: 1 0 0 0 0 0 0 0 0 0

Total # of neighbors = 6128
Ave neighs/atom = 95.750000
Neighbor list builds = 16
Dangerous builds = 0
Setting up Verlet run ...
  Unit style    : metal
  Current step  : 1000
  Time step     : 0.001
Per MPI rank memory allocation (min/avg/max) = 3.089 | 3.089 | 3.089 Mbytes
Step Time Temp Volume Press 
    1000            1    652.99288    963.33548    43928.904 
    1100          1.1    752.34098    963.33548    39884.968 
    1200          1.2    765.53831    963.33548    33846.401 
    1300          1.3     609.3265    963.33548    35384.102 
    1400          1.4    662.87834    963.33548    38424.465 
    1500          1.5    670.33441    963.33548    44295.592 
    1600          1.6    658.44908    963.33548    43328.182 
    1700          1.7    659.03843    963.33548    39706.952 
    1800          1.8    606.29867    963.33548    40128.152 
    1900          1.9    689.60351    963.33548    36016.461 
    2000            2    578.81011    963.33548    41031.573 
    2100          2.1     755.9039    963.33548    39711.949 
    2200          2.2    701.81325    963.33548    44457.184 
    2300          2.3    721.02372    963.33548    49915.936 
    2400          2.4    785.24772    963.33548    47305.165 
    2500          2.5     714.9986    963.33548    40895.563 
    2600          2.6     736.4367    963.33548    36482.122 
    2700          2.7    565.00346    963.33548    40253.852 
    2800          2.8    705.28034    963.33548    36582.757 
    2900          2.9    846.73362    963.33548    39641.435 
    3000            3    662.54894    963.33548    48204.052 
    3100          3.1    770.99782    963.33548    41837.356 
    3200          3.2    694.63424    963.33548    40155.095 
    3300          3.3    609.34121    963.33548    33507.127 
    3400          3.4    620.03762    963.33548    33763.984 
    3500          3.5    581.14949    963.33548    40662.926 
    3600          3.6    711.59981    963.33548    39651.943 
    3700          3.7    643.85089    963.33548    43358.776 
    3800          3.8    734.26434    963.33548     40108.75 
    3900          3.9    699.97452    963.33548    39859.034 
    4000            4    594.09905    963.33548    40028.785 
    4100          4.1    679.20677    963.33548    38434.428 
    4200          4.2    744.06157    963.33548    42413.704 
    4300          4.3    761.00805    963.33548    44864.213 
    4400          4.4    756.39315    963.33548    45967.328 
    4500          4.5    800.93188    963.33548     39637.39 
    4600          4.6    626.38868    963.33548    37937.365 
    4700          4.7    650.63845    963.33548    35135.538 
    4800          4.8    715.55966    963.33548     39225.89 
    4900          4.9    756.79883    963.33548     41279.78 
    5000            5    695.50241    963.33548    40959.437 
    5100          5.1    697.31376    963.33548    39735.967 
    5200          5.2    673.23681    963.33548    41736.298 
    5300          5.3    809.32295    963.33548    44647.606 
    5400          5.4    699.31223    963.33548    52344.976 
    5500          5.5    795.30614    963.33548      40598.5 
    5600          5.6    642.99519    963.33548    41302.936 
    5700          5.7     661.7785    963.33548    36923.194 
    5800          5.8    627.72375    963.33548    35633.932 
    5900          5.9    606.12961    963.33548    39718.465 
    6000            6    739.79218    963.33548    40503.295 
    6100          6.1    751.55675    963.33548    42080.884 
    6200          6.2    697.34079    963.33548    43492.525 
    6300          6.3    663.48181    963.33548    37515.274 
    6400          6.4    561.96248    963.33548    35285.166 
    6500          6.5    682.90053    963.33548    35754.229 
    6600          6.6    626.21288    963.33548    42427.494 
    6700          6.7    708.02674    963.33548    41179.459 
    6800          6.8    769.89641    963.33548    40010.932 
    6900          6.9     551.5842    963.33548    39781.872 
    7000            7    703.83945    963.33548    32502.886 
    7100          7.1    667.92097    963.33548    36763.812 
    7200          7.2    698.69735    963.33548     43057.93 
    7300          7.3    787.33536    963.33548    42693.133 
    7400          7.4    671.26174    963.33548     43468.91 
    7500          7.5    645.41956    963.33548    40665.237 
    7600          7.6    598.52675    963.33548    39891.902 
    7700          7.7    685.69134    963.33548    34192.941 
    7800          7.8    512.16975    963.33548    43250.582 
    7900          7.9    823.39137    963.33548    37713.831 
    8000            8    670.64806    963.33548    44555.316 
    8100          8.1    652.35333    963.33548    42163.852 
    8200          8.2    654.09093    963.33548    37396.772 
    8300          8.3    683.24231    963.33548    34328.755 
    8400          8.4    674.24164    963.33548    32428.188 
    8500          8.5    627.09416    963.33548    40485.534 
    8600          8.6    735.18513    963.33548    42156.741 
    8700          8.7    740.70501    963.33548    43601.281 
    8800          8.8    688.32692    963.33548    40415.691 
    8900          8.9    696.84405    963.33548    35601.758 
    9000            9    639.75721    963.33548    38324.596 
    9100          9.1    726.43394    963.33548    36270.979 
    9200          9.2    779.93689    963.33548        43828 
    9300          9.3    832.36228    963.33548    47748.019 
    9400          9.4    788.08535    963.33548    42838.338 
    9500          9.5    779.91526    963.33548    36066.078 
    9600          9.6     696.2274    963.33548    34418.687 
    9700          9.7     596.0885    963.33548    36698.169 
    9800          9.8     693.7701    963.33548    40200.534 
    9900          9.9    754.32617    963.33548    43403.777 
   10000           10    743.88433    963.33548    43965.934 
Loop time of 199.364 on 1 procs for 9000 steps with 64 atoms

Performance: 3.900 ns/day, 6.153 hours/ns, 45.144 timesteps/s
100.0% CPU use with 1 MPI tasks x no OpenMP threads

MPI task timing breakdown:
Section |  min time  |  avg time  |  max time  |%varavg| %total
---------------------------------------------------------------
Pair    | 199.27     | 199.27     | 199.27     |   0.0 | 99.95
Neigh   | 0.034764   | 0.034764   | 0.034764   |   0.0 |  0.02
Comm    | 0.032471   | 0.032471   | 0.032471   |   0.0 |  0.02
Output  | 0.0005781  | 0.0005781  | 0.0005781  |   0.0 |  0.00
Modify  | 0.016138   | 0.016138   | 0.016138   |   0.0 |  0.01
Other   |            | 0.006955   |            |       |  0.00

Nlocal:        64.0000 ave          64 max          64 min
Histogram: 1 0 0 0 0 0 0 0 0 0
Nghost:        877.000 ave         877 max         877 min
Histogram: 1 0 0 0 0 0 0 0 0 0
Neighs:         0.00000 ave           0 max           0 min
Histogram: 1 0 0 0 0 0 0 0 0 0
FullNghs:      6082.00 ave        6082 max        6082 min
Histogram: 1 0 0 0 0 0 0 0 0 0

Total # of neighbors = 6082
Ave neighs/atom = 95.031250
Neighbor list builds = 161
Dangerous builds = 0
System init for write_data ...
Total wall time: 0:03:41
