LAMMPS data file via write_data, version 29 Sep 2021, timestep = 10000

64 atoms
1 atom types

0 10.600000000000822 xlo xhi
0 9.179869280115762 ylo yhi
0 9.9 zlo zhi
0 0 0 xy xz yz

Masses

1 65.38

Atoms # atomic

1 1 1.36642451181378 5.2522160717675686 3.5827277270572395 0 0 0
2 1 1.3886392498322757 5.243956476135934 8.199683335889572 0 0 0
3 1 0.01244456223272246 7.474898439936845 3.588888551726099 0 0 0
4 1 10.583446847211388 7.719603664930643 8.49528949388767 -1 0 0
5 1 6.638574077017233 0.710641703624665 4.1032100767378585 0 0 0
6 1 6.4006276589792614 0.8605637022920067 8.327869567273673 0 0 0
7 1 5.435746239845738 2.9527988344030893 3.605917029437754 0 0 0
8 1 4.936367665119234 2.721066629159533 9.222860055452463 0 0 0
9 1 1.3826935326336185 0.9637156989946761 3.687046344431568 0 0 0
10 1 1.3636522406225053 0.5863578384023989 8.485128735537327 0 0 0
11 1 0.13466538827012678 3.097262671513323 3.3851502798923767 0 0 0
12 1 0.014879731785461151 2.866000139037297 8.935266444450113 0 0 0
13 1 3.943035761687541 0.7778850444264306 3.8599605929824294 0 0 0
14 1 3.9389052364858155 0.4035876184109345 9.144640568161181 0 0 0
15 1 2.8074288371657 2.9655477713266563 3.4780476566844714 0 0 0
16 1 2.2899065881254272 3.132718413547316 8.552570270546093 0 0 0
17 1 6.598111269731125 5.4776353591754745 3.324927701070432 0 0 0
18 1 6.483964027155475 5.215668427093648 9.007970322559773 0 0 0
19 1 5.500876897344885 7.7604151386984634 3.8811209419068278 0 0 0
20 1 5.415596189439017 7.5125545715579225 8.501605038770306 0 0 0
21 1 9.376929945804173 5.113289000646659 3.966515756619842 0 0 0
22 1 9.238905591645704 5.299748321804321 8.843802188096499 0 0 0
23 1 8.118854905800248 7.518925564990742 3.4429234265806303 0 0 0
24 1 7.918243123180549 7.577719894523843 8.580245235094427 0 0 0
25 1 3.9641715541774114 5.242322536499025 3.8877426904993273 0 0 0
26 1 4.1762022483463666 5.272464708761652 9.017455014522241 0 0 0
27 1 2.9134259273676952 7.79697409241057 3.617372424670517 0 0 0
28 1 2.5346062748716744 7.551181877046934 8.692590758985666 0 0 0
29 1 9.455469549121057 0.7756915975973041 3.416786948990307 0 0 0
30 1 8.99290901009933 0.5841988091273465 8.463914356635827 0 0 0
31 1 8.235307105492279 2.905541148009886 4.115464296927888 0 0 0
32 1 8.039010943510117 2.983185785571515 8.764094771642077 0 0 0
33 1 5.669089710954894 1.517284811879397 1.4617037482126183 0 0 0
34 1 5.214552007918088 1.7591323816975721 6.419013239726069 0 0 0
35 1 4.175426259742377 4.053906859031798 1.3694034298163282 0 0 0
36 1 3.590255762457178 4.1000426756356525 6.738451080974188 0 0 0
37 1 2.2723900674150967 6.213308793932026 1.0497053860651995 0 0 0
38 1 2.5049748629995467 6.200050828790049 5.7884419056432606 0 0 0
39 1 1.2986532797727315 8.695533705099871 1.61661588310708 0 0 0
40 1 1.4990413048005933 8.475581098509975 6.02975399347275 0 0 0
41 1 0.03754941685204754 1.503413941454731 1.2936792280844673 0 0 0
42 1 10.555830690689584 1.6048134652710264 6.435645049983475 -1 0 0
43 1 2.520080120890334 1.7625066777320917 0.868149701900345 0 0 0
44 1 2.701041422974947 1.474481863522235 5.994590793414749 0 0 0
45 1 1.394714886970133 3.914302860115928 1.0883807702525115 0 0 0
46 1 1.3070418229712983 3.78810618626228 5.6194074894360595 0 0 0
47 1 10.454393409205984 6.099805290840591 1.4014926048464802 -1 0 0
48 1 10.523034491709485 6.31279669912666 6.437185537846351 -1 0 0
49 1 9.329853051167253 3.601492871716998 1.1130503783162073 0 0 0
50 1 9.464786568630066 3.818180187014743 6.574770888535917 0 0 0
51 1 7.918409394211904 6.066205629377769 1.171661349009424 0 0 0
52 1 8.076499484772526 6.140369360936253 5.965368951486096 0 0 0
53 1 6.408320840531471 8.259266281567033 1.1324299422188824 0 0 0
54 1 6.556683700274467 8.487162051819192 6.290504156342075 0 0 0
55 1 9.205464007805372 8.403404453892461 0.831747967003654 0 0 0
56 1 9.542744063302077 8.527276330479221 5.835913738137376 0 0 0
57 1 7.993635803111601 1.3913189995018425 1.1627977712484214 0 0 0
58 1 7.987270650180269 1.5634391495171007 6.468677939837184 0 0 0
59 1 6.863610227727161 3.749035211015882 1.2295630708019827 0 0 0
60 1 6.549304081440255 4.066229939327077 5.5499919434996645 0 0 0
61 1 4.8170867768251915 6.4932707821220745 1.5812126323217535 0 0 0
62 1 5.187651758420177 6.137249060730128 6.059748082529819 0 0 0
63 1 3.9787280273942165 8.716491716371545 1.5571577493242337 0 0 0
64 1 4.00185935399466 8.544019247988654 6.484994992884204 0 0 0

Velocities

1 -4.217884046254087 -1.2702262634182466 2.4897111072035196
2 -1.2072083701065988 -0.18187311236896514 -1.6515691587850383
3 -3.416338972275787 -1.0915632423295585 6.311729829580447
4 3.9184339020586 -0.20130172421363646 3.930525253956265
5 0.4158222893212544 -0.6110671466864991 -1.4822452370593124
6 -0.32879548245519924 4.24344055633485 1.8009338123687644
7 0.6490321057571091 -0.9536719194921542 0.18258202089187703
8 4.139138344159953 -0.8626237195443194 3.0002830954919504
9 -2.2111399305816013 -1.7427403583522356 -0.6816755052897528
10 -0.3057872382834095 6.532131801566768 -2.7898958999633225
11 1.6107880040454772 0.06674446411102063 5.290517360093472
12 1.7631906424610475 2.092755219539629 -3.687317139146021
13 1.2001399176965921 -0.8746493151778072 -2.972319292542668
14 1.2491070129757451 -2.0704970310843254 0.1524963459038212
15 -0.41231500127033344 2.5692261739271594 -1.732941077544562
16 -0.3949569976662928 -6.588290439073997 6.304727273971657
17 -2.0091334459887276 3.564440596411235 -2.563416608389349
18 6.6371453938578036 0.3308031850143071 -10.007688776569239
19 0.19367524143482284 0.3002564969073067 2.528574498152246
20 0.6354044315909672 -3.347847845363629 -1.1730639492658865
21 2.1565142196126046 3.379425608796594 -0.2760275814546332
22 -0.5980928873432436 3.2852351241136524 -1.4874059746933646
23 -2.784689918139304 -1.9985423444173036 -1.0720120140655616
24 0.9349241225785403 1.1078293893691973 -3.233976496446853
25 -0.9503025458605606 -3.1942626469362723 1.3883469812000202
26 2.158717213809954 0.1879764491941739 -2.2874171847744593
27 -6.145438458869299 -5.544165331997999 1.295516827229318
28 -0.7971222113814985 0.2733613332352931 3.0036977917136105
29 -0.37805262105917287 -0.38990868205959406 5.3780299225967685
30 -2.53017034685713 1.3898607810039487 -3.3818550138272654
31 0.8546150509086589 3.8009716787384713 1.2820447860042483
32 3.768150892580821 -2.02043379656027 0.5633656163822833
33 -0.35130684392299 -1.3222819615109613 -2.2014166920876175
34 2.6730856105237475 2.7562634284327694 -2.1676694675462422
35 -2.2401168595240994 -0.4585201042656207 1.1926554882540499
36 3.4980866032465854 -1.182479186738183 -0.20418540839747729
37 0.5145559865393431 1.7998397726565205 -6.895100524077729
38 2.7795259714027263 -0.006159776082587927 -5.218572599219262
39 1.9714819527438885 2.1811010616409328 1.9914120902766748
40 0.6931333678363497 -2.9324641933790097 -1.7417893136793936
41 2.6920007455295387 -2.5581553810603364 1.2509094569453945
42 3.4837110232903283 -3.545374149322845 0.44294371544171046
43 -2.630422306397169 -4.925854489027846 0.3529361126909244
44 5.688356670532865 -5.162345700958265 -4.733218791725587
45 -0.1811633249920744 4.199546810364814 2.2172767777856537
46 -5.863682673244885 -0.47211318490066795 -1.8855282466257053
47 2.5664527356994618 2.292733721476196 2.317262870670053
48 1.6746722457472596 0.8459775783869873 4.248371065869156
49 -3.138015781284533 -0.22261853599999198 -3.6217322616170975
50 -0.4071031809313091 4.287746769336892 -2.413464170678038
51 -0.006808955311006012 -2.9754463855324924 4.0060045618064954
52 -7.782823760686646 1.2747833219149023 -2.2788537355042724
53 -5.251848014913005 0.17576631453478347 0.4930078316889616
54 -4.754400679672665 2.7405153554335864 4.142795473772256
55 -2.764557357055002 6.854824723571886 1.385980024740355
56 2.9986659169635663 4.114360180315952 0.6924790430134042
57 -1.1133089981480675 -7.401090198622235 -2.5340613900942217
58 2.7357915247316393 -4.935012929203264 2.9874653233150323
59 -0.14558551000461956 -1.9130816176538108 -2.149642034191375
60 -5.341451841478013 1.3001563659925088 6.222871794768399
61 5.196297739263096 2.2030240368835545 -5.0523717569657
62 1.0348568136527876 2.148324973993369 -0.22587366538398504
63 -0.4267827360871446 1.1142338362642472 4.110022537958279
64 -1.3986663945072144 -0.45699439612836285 0.846830275873794
