ITEM: TIMESTEP
10000
ITEM: NUMBER OF ATOMS
64
ITEM: BOX BOUNDS xy xz yz pp pp pp
0.0000000000000000e+00 1.0600000000000822e+01 0.0000000000000000e+00
0.0000000000000000e+00 9.1798692801157618e+00 0.0000000000000000e+00
0.0000000000000000e+00 9.9000000000000004e+00 0.0000000000000000e+00
ITEM: ATOMS id type x y z
1 1 1.36642 5.25222 3.58273
2 1 1.38864 5.24396 8.19968
3 1 0.0124446 7.4749 3.58889
4 1 10.5834 7.7196 8.49529
5 1 6.63857 0.710642 4.10321
6 1 6.40063 0.860564 8.32787
7 1 5.43575 2.9528 3.60592
8 1 4.93637 2.72107 9.22286
9 1 1.38269 0.963716 3.68705
10 1 1.36365 0.586358 8.48513
11 1 0.134665 3.09726 3.38515
12 1 0.0148797 2.866 8.93527
13 1 3.94304 0.777885 3.85996
14 1 3.93891 0.403588 9.14464
15 1 2.80743 2.96555 3.47805
16 1 2.28991 3.13272 8.55257
17 1 6.59811 5.47764 3.32493
18 1 6.48396 5.21567 9.00797
19 1 5.50088 7.76042 3.88112
20 1 5.4156 7.51255 8.50161
21 1 9.37693 5.11329 3.96652
22 1 9.23891 5.29975 8.8438
23 1 8.11885 7.51893 3.44292
24 1 7.91824 7.57772 8.58025
25 1 3.96417 5.24232 3.88774
26 1 4.1762 5.27246 9.01746
27 1 2.91343 7.79697 3.61737
28 1 2.53461 7.55118 8.69259
29 1 9.45547 0.775692 3.41679
30 1 8.99291 0.584199 8.46391
31 1 8.23531 2.90554 4.11546
32 1 8.03901 2.98319 8.76409
33 1 5.66909 1.51728 1.4617
34 1 5.21455 1.75913 6.41901
35 1 4.17543 4.05391 1.3694
36 1 3.59026 4.10004 6.73845
37 1 2.27239 6.21331 1.04971
38 1 2.50497 6.20005 5.78844
39 1 1.29865 8.69553 1.61662
40 1 1.49904 8.47558 6.02975
41 1 0.0375494 1.50341 1.29368
42 1 10.5558 1.60481 6.43565
43 1 2.52008 1.76251 0.86815
44 1 2.70104 1.47448 5.99459
45 1 1.39471 3.9143 1.08838
46 1 1.30704 3.78811 5.61941
47 1 10.4544 6.09981 1.40149
48 1 10.523 6.3128 6.43719
49 1 9.32985 3.60149 1.11305
50 1 9.46479 3.81818 6.57477
51 1 7.91841 6.06621 1.17166
52 1 8.0765 6.14037 5.96537
53 1 6.40832 8.25927 1.13243
54 1 6.55668 8.48716 6.2905
55 1 9.20546 8.4034 0.831748
56 1 9.54274 8.52728 5.83591
57 1 7.99364 1.39132 1.1628
58 1 7.98727 1.56344 6.46868
59 1 6.86361 3.74904 1.22956
60 1 6.5493 4.06623 5.54999
61 1 4.81709 6.49327 1.58121
62 1 5.18765 6.13725 6.05975
63 1 3.97873 8.71649 1.55716
64 1 4.00186 8.54402 6.48499
