 # Something
 108 atoms
 1 atom types
 0   12.732000000000001      xlo xhi 
 0   12.732000000000001      ylo yhi 
 0   12.732000000000001      zlo zhi 
   0.0000000000000000        0.0000000000000000        0.0000000000000000      xy xz yz
 Atoms
 
           1           1   6.3660000000000005        10.610000000000001        0.0000000000000000     
           2           1   4.2439999999999998        10.610000000000001        10.610000000000001     
           3           1   2.1220000000000008        10.610000000000001        8.4880000000000013     
           4           1   0.0000000000000000        10.610000000000001        6.3660000000000005     
           5           1   8.4880000000000013        8.4880000000000013        0.0000000000000000     
           6           1   6.3660000000000005        8.4880000000000013        10.610000000000001     
           7           1   4.2439999999999998        8.4880000000000013        8.4880000000000013     
           8           1   4.2439999999999998        6.3660000000000005        2.1220000000000008     
           9           1   10.610000000000001        4.2439999999999998        6.3660000000000005     
          10           1   8.4880000000000013        4.2439999999999998        4.2439999999999998     
          11           1   6.3660000000000005        4.2439999999999998        2.1220000000000008     
          12           1   10.610000000000001        2.1220000000000008        4.2439999999999998     
          13           1   8.4880000000000013        2.1220000000000008        2.1220000000000008     
          14           1   10.610000000000001        0.0000000000000000        2.1220000000000008     
          15           1   2.1220000000000008        6.3660000000000005        4.2439999999999998     
          16           1   0.0000000000000000        6.3660000000000005        2.1220000000000008     
          17           1   10.610000000000001        4.2439999999999998        10.610000000000001     
          18           1   8.4880000000000013        4.2439999999999998        8.4880000000000013     
          19           1   6.3660000000000005        4.2439999999999998        6.3660000000000005     
          20           1   4.2439999999999998        4.2439999999999998        4.2439999999999998     
          21           1   2.1220000000000008        4.2439999999999998        2.1220000000000008     
          22           1   4.2439999999999998        6.3660000000000005        6.3660000000000005     
          23           1   6.3660000000000005        6.3660000000000005        8.4880000000000013     
          24           1   8.4880000000000013        6.3660000000000005        10.610000000000001     
          25           1   10.610000000000001        6.3660000000000005        0.0000000000000000     
          26           1   0.0000000000000000        8.4880000000000013        4.2439999999999998     
          27           1   2.1220000000000008        8.4880000000000013        6.3660000000000005     
          28           1   10.610000000000001        8.4880000000000013        6.3660000000000005     
          29           1   8.4880000000000013        8.4880000000000013        4.2439999999999998     
          30           1   6.3660000000000005        8.4880000000000013        2.1220000000000008     
          31           1   10.610000000000001        6.3660000000000005        4.2439999999999998     
          32           1   8.4880000000000013        6.3660000000000005        2.1220000000000008     
          33           1   10.610000000000001        4.2439999999999998        2.1220000000000008     
          34           1   10.610000000000001        10.610000000000001        0.0000000000000000     
          35           1   10.610000000000001        10.610000000000001        4.2439999999999998     
          36           1   8.4880000000000013        10.610000000000001        2.1220000000000008     
          37           1   10.610000000000001        8.4880000000000013        2.1220000000000008     
          38           1   10.610000000000001        10.610000000000001        8.4880000000000013     
          39           1   8.4880000000000013        10.610000000000001        6.3660000000000005     
          40           1   6.3660000000000005        10.610000000000001        4.2439999999999998     
          41           1   4.2439999999999998        10.610000000000001        2.1220000000000008     
          42           1   8.4880000000000013        8.4880000000000013        8.4880000000000013     
          43           1   6.3660000000000005        8.4880000000000013        6.3660000000000005     
          44           1   4.2439999999999998        8.4880000000000013        4.2439999999999998     
          45           1   2.1220000000000008        8.4880000000000013        2.1220000000000008     
          46           1   10.610000000000001        6.3660000000000005        8.4880000000000013     
          47           1   8.4880000000000013        6.3660000000000005        6.3660000000000005     
          48           1   6.3660000000000005        6.3660000000000005        4.2439999999999998     
          49           1   10.610000000000001        8.4880000000000013        10.610000000000001     
          50           1   0.0000000000000000        10.610000000000001        2.1220000000000008     
          51           1   2.1220000000000008        10.610000000000001        4.2439999999999998     
          52           1   4.2439999999999998        10.610000000000001        6.3660000000000005     
          53           1   6.3660000000000005        10.610000000000001        8.4880000000000013     
          54           1   8.4880000000000013        10.610000000000001        10.610000000000001     
          55           1   0.0000000000000000        6.3660000000000005        10.610000000000001     
          56           1   4.2439999999999998        4.2439999999999998        0.0000000000000000     
          57           1   2.1220000000000008        4.2439999999999998        10.610000000000001     
          58           1   0.0000000000000000        4.2439999999999998        8.4880000000000013     
          59           1   6.3660000000000005        2.1220000000000008        0.0000000000000000     
          60           1   4.2439999999999998        2.1220000000000008        10.610000000000001     
          61           1   2.1220000000000008        2.1220000000000008        8.4880000000000013     
          62           1   10.610000000000001        0.0000000000000000        10.610000000000001     
          63           1   8.4880000000000013        0.0000000000000000        8.4880000000000013     
          64           1   6.3660000000000005        0.0000000000000000        6.3660000000000005     
          65           1   4.2439999999999998        0.0000000000000000        4.2439999999999998     
          66           1   2.1220000000000008        0.0000000000000000        2.1220000000000008     
          67           1   0.0000000000000000        8.4880000000000013        0.0000000000000000     
          68           1   2.1220000000000008        6.3660000000000005        0.0000000000000000     
          69           1   0.0000000000000000        4.2439999999999998        0.0000000000000000     
          70           1   2.1220000000000008        2.1220000000000008        0.0000000000000000     
          71           1   0.0000000000000000        2.1220000000000008        10.610000000000001     
          72           1   4.2439999999999998        0.0000000000000000        0.0000000000000000     
          73           1   2.1220000000000008        0.0000000000000000        10.610000000000001     
          74           1   0.0000000000000000        0.0000000000000000        8.4880000000000013     
          75           1   0.0000000000000000        0.0000000000000000        0.0000000000000000     
          76           1   0.0000000000000000        0.0000000000000000        4.2439999999999998     
          77           1   2.1220000000000008        0.0000000000000000        6.3660000000000005     
          78           1   4.2439999999999998        0.0000000000000000        8.4880000000000013     
          79           1   6.3660000000000005        0.0000000000000000        10.610000000000001     
          80           1   8.4880000000000013        0.0000000000000000        0.0000000000000000     
          81           1   0.0000000000000000        2.1220000000000008        6.3660000000000005     
          82           1   2.1220000000000008        10.610000000000001        0.0000000000000000     
          83           1   0.0000000000000000        10.610000000000001        10.610000000000001     
          84           1   4.2439999999999998        8.4880000000000013        0.0000000000000000     
          85           1   2.1220000000000008        8.4880000000000013        10.610000000000001     
          86           1   0.0000000000000000        8.4880000000000013        8.4880000000000013     
          87           1   6.3660000000000005        6.3660000000000005        0.0000000000000000     
          88           1   4.2439999999999998        6.3660000000000005        10.610000000000001     
          89           1   10.610000000000001        2.1220000000000008        8.4880000000000013     
          90           1   8.4880000000000013        2.1220000000000008        6.3660000000000005     
          91           1   6.3660000000000005        2.1220000000000008        4.2439999999999998     
          92           1   4.2439999999999998        2.1220000000000008        2.1220000000000008     
          93           1   10.610000000000001        0.0000000000000000        6.3660000000000005     
          94           1   8.4880000000000013        0.0000000000000000        4.2439999999999998     
          95           1   6.3660000000000005        0.0000000000000000        2.1220000000000008     
          96           1   0.0000000000000000        4.2439999999999998        4.2439999999999998     
          97           1   10.610000000000001        2.1220000000000008        0.0000000000000000     
          98           1   8.4880000000000013        2.1220000000000008        10.610000000000001     
          99           1   6.3660000000000005        2.1220000000000008        8.4880000000000013     
         100           1   4.2439999999999998        2.1220000000000008        6.3660000000000005     
         101           1   2.1220000000000008        2.1220000000000008        4.2439999999999998     
         102           1   0.0000000000000000        2.1220000000000008        2.1220000000000008     
         103           1   2.1220000000000008        4.2439999999999998        6.3660000000000005     
         104           1   4.2439999999999998        4.2439999999999998        8.4880000000000013     
         105           1   6.3660000000000005        4.2439999999999998        10.610000000000001     
         106           1   8.4880000000000013        4.2439999999999998        0.0000000000000000     
         107           1   0.0000000000000000        6.3660000000000005        6.3660000000000005     
         108           1   2.1220000000000008        6.3660000000000005        8.4880000000000013     
