LAMMPS (29 Sep 2021 - Update 1)
Reading data file ...
  triclinic box = (0.0000000 0.0000000 0.0000000) to (10.640000 9.2145103 10.500000) with tilt (0.0000000 0.0000000 0.0000000)
  1 by 1 by 1 MPI processor grid
  reading atoms ...
  64 atoms
  read_data CPU = 0.001 seconds
Neighbor list info ...
  update every 1 steps, delay 0 steps, check yes
  max neighbors/atom: 2000, page size: 100000
  master list distance cutoff = 7
  ghost atom cutoff = 7
  binsize = 3.5, bins = 4 3 3
  1 neighbor lists, perpetual/occasional/extra = 1 0 0
  (1) pair mlip, perpetual
      attributes: full, newton on
      pair build: full/bin/atomonly
      stencil: full/bin/3d
      bin: standard
Setting up Verlet run ...
  Unit style    : metal
  Current step  : 0
  Time step     : 0.001
Per MPI rank memory allocation (min/avg/max) = 3.090 | 3.090 | 3.090 Mbytes
Step Time Temp Volume Press 
       0            0         1380    1029.4451   -23153.797 
       1        0.001     1379.059    1029.4451   -23118.981 
       2        0.002    1376.2425    1029.4451   -23014.794 
       3        0.003    1371.5674    1029.4451   -22841.799 
       4        0.004     1365.058    1029.4451   -22600.804 
       5        0.005    1356.7454    1029.4451   -22292.858 
       6        0.006     1346.668    1029.4451   -21919.261 
       7        0.007    1334.8713    1029.4451   -21481.555 
       8        0.008    1321.4069    1029.4451   -20986.234 
       9        0.009    1306.3323    1029.4451    -20439.29 
      10         0.01    1289.7096    1029.4451    -19846.34 
Loop time of 0.21239 on 1 procs for 10 steps with 64 atoms

Performance: 4.068 ns/day, 5.900 hours/ns, 47.083 timesteps/s
90.4% CPU use with 1 MPI tasks x no OpenMP threads

MPI task timing breakdown:
Section |  min time  |  avg time  |  max time  |%varavg| %total
---------------------------------------------------------------
Pair    | 0.21229    | 0.21229    | 0.21229    |   0.0 | 99.95
Neigh   | 0          | 0          | 0          |   0.0 |  0.00
Comm    | 2.9886e-05 | 2.9886e-05 | 2.9886e-05 |   0.0 |  0.01
Output  | 3.6309e-05 | 3.6309e-05 | 3.6309e-05 |   0.0 |  0.02
Modify  | 2.4841e-05 | 2.4841e-05 | 2.4841e-05 |   0.0 |  0.01
Other   |            | 1.053e-05  |            |       |  0.00

Nlocal:        64.0000 ave          64 max          64 min
Histogram: 1 0 0 0 0 0 0 0 0 0
Nghost:        886.000 ave         886 max         886 min
Histogram: 1 0 0 0 0 0 0 0 0 0
Neighs:         0.00000 ave           0 max           0 min
Histogram: 1 0 0 0 0 0 0 0 0 0
FullNghs:      5504.00 ave        5504 max        5504 min
Histogram: 1 0 0 0 0 0 0 0 0 0

Total # of neighbors = 5504
Ave neighs/atom = 86.000000
Neighbor list builds = 0
Dangerous builds = 0
Setting up Verlet run ...
  Unit style    : metal
  Current step  : 10
  Time step     : 0.001
Per MPI rank memory allocation (min/avg/max) = 3.090 | 3.090 | 3.090 Mbytes
Step Time Temp Volume Press 
      10         0.01    1289.7096    1029.4451    -19846.34 
      11        0.011    1271.6076    1029.4451   -19208.334 
      12        0.012    1252.1024    1029.4451   -18539.502 
      13        0.013    1231.2765    1029.4451   -17839.177 
      14        0.014    1209.2193    1029.4451   -17108.168 
      15        0.015    1186.0273    1029.4451   -16340.561 
      16        0.016    1161.8023    1029.4451   -15546.283 
      17        0.017    1136.6509    1029.4451   -14731.759 
      18        0.018    1110.6846    1029.4451   -13892.528 
      19        0.019    1084.0196    1029.4451   -13029.765 
      20         0.02    1056.7756    1029.4451   -12150.897 
      21        0.021     1029.075    1029.4451   -11256.405 
      22        0.022     1001.043    1029.4451   -10351.704 
      23        0.023    972.80681    1029.4451   -9441.7338 
      24        0.024    944.49382    1029.4451   -8530.5011 
      25        0.025    916.23116    1029.4451   -7621.4841 
      26        0.026    888.14483    1029.4451   -6716.3379 
      27        0.027    860.35855    1029.4451   -5821.2274 
      28        0.028    832.99301    1029.4451     -4937.91 
      29        0.029    806.16531    1029.4451   -4067.3105 
      30         0.03     779.9878    1029.4451   -3214.7253 
      31        0.031    754.56712    1029.4451   -2383.9973 
      32        0.032    730.00348    1029.4451   -1577.2158 
      33        0.033    706.38969    1029.4451   -797.35004 
      34        0.034    683.81065    1029.4451   -47.430362 
      35        0.035    662.34267    1029.4451      670.785 
      36        0.036    642.05298    1029.4451    1355.9333 
      37        0.037    622.99928    1029.4451    2006.8242 
      38        0.038    605.22949    1029.4451    2620.9359 
      39        0.039    588.78138    1029.4451    3198.2712 
      40         0.04    573.68247    1029.4451    3737.1603 
      41        0.041    559.95016    1029.4451    4236.3664 
      42        0.042    547.59187    1029.4451    4695.4793 
      43        0.043     536.6052    1029.4451     5113.355 
      44        0.044    526.97825    1029.4451    5489.7949 
      45        0.045     518.6901    1029.4451     5824.822 
      46        0.046    511.71114    1029.4451    6117.6711 
      47        0.047    506.00391    1029.4451    6370.1625 
      48        0.048    501.52399    1029.4451     6583.764 
      49        0.049     498.2207    1029.4451    6759.5444 
      50         0.05    496.03783    1029.4451    6897.8618 
      51        0.051    494.91444    1029.4451    7001.8073 
      52        0.052    494.78567    1029.4451    7072.0374 
      53        0.053    495.58358    1029.4451     7111.452 
      54        0.054    497.23797    1029.4451    7121.9765 
      55        0.055    499.67712    1029.4451     7105.565 
      56        0.056    502.82857    1029.4451    7064.3814 
      57        0.057    506.61931    1029.4451    6995.1694 
      58        0.058    510.97654    1029.4451    6902.3156 
      59        0.059    515.82881    1029.4451    6789.7908 
      60         0.06    521.10653    1029.4451    6661.7943 
      61        0.061    526.74232    1029.4451    6520.3204 
      62        0.062    532.67134    1029.4451    6367.2738 
      63        0.063    538.83164    1029.4451    6204.6217 
      64        0.064    545.16386    1029.4451    6032.4726 
      65        0.065    551.61183    1029.4451    5855.0245 
      66        0.066     558.1233    1029.4451     5672.111 
      67        0.067     564.6495    1029.4451    5484.1224 
      68        0.068    571.14461    1029.4451    5290.3859 
      69        0.069    577.56614    1029.4451    5095.7578 
      70         0.07    583.87535    1029.4451    4902.4517 
      71        0.071    590.03698    1029.4451    4712.5552 
      72        0.072    596.01917    1029.4451    4527.8142 
      73        0.073    601.79304    1029.4451    4347.9072 
      74        0.074    607.33222    1029.4451    4171.6813 
      75        0.075    612.61296    1029.4451    4004.8417 
      76        0.076    617.61463    1029.4451    3846.3122 
      77        0.077     622.3192    1029.4451    3695.8341 
      78        0.078    626.71086    1029.4451    3556.3731 
      79        0.079     630.7761    1029.4451    3427.6132 
      80         0.08    634.50329    1029.4451    3309.3023 
      81        0.081    637.88249    1029.4451    3201.4982 
      82        0.082    640.90561    1029.4451    3106.0832 
      83        0.083    643.56627    1029.4451    3023.2626 
      84        0.084    645.85946    1029.4451    2952.5962 
      85        0.085    647.78135    1029.4451    2894.7057 
      86        0.086    649.32941    1029.4451    2851.6806 
      87        0.087    650.50243    1029.4451     2822.982 
      88        0.088    651.30028    1029.4451    2808.6786 
      89        0.089    651.72368    1029.4451    2808.8054 
      90         0.09      651.774    1029.4451    2820.9957 
      91        0.091    651.45371    1029.4451    2846.9449 
      92        0.092    650.76643    1029.4451    2886.6157 
      93        0.093    649.71648    1029.4451    2940.2097 
      94        0.094    648.30876    1029.4451    3006.3744 
      95        0.095    646.54898    1029.4451    3084.3458 
      96        0.096    644.44379    1029.4451    3175.1116 
      97        0.097     642.0007    1029.4451    3278.8769 
      98        0.098    639.22791    1029.4451    3395.2543 
      99        0.099    636.13429    1029.4451    3523.1376 
     100          0.1    632.72954    1029.4451    3663.1568 
Loop time of 1.67049 on 1 procs for 90 steps with 64 atoms

Performance: 4.655 ns/day, 5.156 hours/ns, 53.876 timesteps/s
100.0% CPU use with 1 MPI tasks x no OpenMP threads

MPI task timing breakdown:
Section |  min time  |  avg time  |  max time  |%varavg| %total
---------------------------------------------------------------
Pair    | 1.6695     | 1.6695     | 1.6695     |   0.0 | 99.94
Neigh   | 0.00018166 | 0.00018166 | 0.00018166 |   0.0 |  0.01
Comm    | 0.00026887 | 0.00026887 | 0.00026887 |   0.0 |  0.02
Output  | 0.00030307 | 0.00030307 | 0.00030307 |   0.0 |  0.02
Modify  | 0.00016077 | 0.00016077 | 0.00016077 |   0.0 |  0.01
Other   |            | 7.001e-05  |            |       |  0.00

Nlocal:        64.0000 ave          64 max          64 min
Histogram: 1 0 0 0 0 0 0 0 0 0
Nghost:        876.000 ave         876 max         876 min
Histogram: 1 0 0 0 0 0 0 0 0 0
Neighs:         0.00000 ave           0 max           0 min
Histogram: 1 0 0 0 0 0 0 0 0 0
FullNghs:      5616.00 ave        5616 max        5616 min
Histogram: 1 0 0 0 0 0 0 0 0 0

Total # of neighbors = 5616
Ave neighs/atom = 87.750000
Neighbor list builds = 1
Dangerous builds = 0
Setting up Verlet run ...
  Unit style    : metal
  Current step  : 100
  Time step     : 0.001
Per MPI rank memory allocation (min/avg/max) = 3.090 | 3.090 | 3.090 Mbytes
Step Time Temp Volume Press 
     100          0.1    632.72954    1029.4451    3663.1568 
     110         0.11     584.3568    1029.4451    5605.7479 
     120         0.12    522.90733    1029.4451    8013.9526 
     130         0.13    473.76656    1029.4451    9952.0935 
     140         0.14    459.85586    1029.4451    10713.313 
     150         0.15    484.59642    1029.4451    10213.798 
     160         0.16    532.93699    1029.4451    8934.1946 
     170         0.17    585.75474    1029.4451    7509.6896 
     180         0.18     623.5192    1029.4451    6589.8415 
     190         0.19    630.09634    1029.4451    6728.2689 
     200          0.2    606.85252    1029.4451    7698.1287 
     210         0.21    576.93919    1029.4451    8851.9516 
     220         0.22    567.97216    1029.4451    9353.7773 
     230         0.23    588.12154    1029.4451    8921.3183 
     240         0.24     627.0096    1029.4451    7794.9998 
     250         0.25    670.81704    1029.4451    6474.6684 
     260         0.26    704.76943    1029.4451    5486.8524 
     270         0.27    720.06114    1029.4451    5170.0203 
     280         0.28    719.99887    1029.4451    5446.6247 
     290         0.29     711.0686    1029.4451    6221.6234 
     300          0.3     694.4295    1029.4451    7264.9385 
     310         0.31    671.35906    1029.4451    8316.0992 
     320         0.32    656.73325    1029.4451    8934.3558 
     330         0.33    670.38194    1029.4451    8609.8945 
     340         0.34    707.77178    1029.4451    7455.3646 
     350         0.35    749.85689    1029.4451    6124.6846 
     360         0.36    786.77419    1029.4451    4935.0865 
     370         0.37    810.70746    1029.4451    4193.9974 
     380         0.38    813.43883    1029.4451    4195.0768 
     390         0.39    795.54681    1029.4451    4910.4524 
     400          0.4    765.30644    1029.4451    6138.9208 
     410         0.41    731.11807    1029.4451    7489.0073 
     420         0.42    700.69735    1029.4451    8605.4208 
     430         0.43    684.42038    1029.4451    9218.5131 
     440         0.44    691.41349    1029.4451    8941.2465 
     450         0.45    717.57251    1029.4451    7967.7888 
     460         0.46    747.58965    1029.4451      6662.09 
     470         0.47      764.265    1029.4451     5613.689 
     480         0.48    755.48688    1029.4451    5263.8093 
     490         0.49    723.99296    1029.4451    5584.6445 
     500          0.5    685.15717    1029.4451    6211.1378 
     510         0.51    651.92227    1029.4451    6721.0862 
     520         0.52    629.03948    1029.4451    6893.9482 
     530         0.53    616.01996    1029.4451    6687.5038 
     540         0.54    610.06483    1029.4451    6284.4736 
     550         0.55    609.20393    1029.4451    5822.2611 
     560         0.56     611.7031    1029.4451     5301.614 
     570         0.57    614.24811    1029.4451    4806.0124 
     580         0.58     618.3467    1029.4451    4287.5764 
     590         0.59    632.17602    1029.4451     3595.489 
     600          0.6    657.19337    1029.4451    2670.9512 
     610         0.61    680.85455    1029.4451    1839.3344 
     620         0.62    689.71637    1029.4451    1454.8461 
     630         0.63    683.37806    1029.4451     1535.215 
     640         0.64    672.42847    1029.4451    1764.8158 
     650         0.65    666.02631    1029.4451    1882.6068 
     660         0.66     664.5052    1029.4451    1888.4436 
     670         0.67    664.13021    1029.4451    1884.5336 
     680         0.68    663.06655    1029.4451    1904.3157 
     690         0.69    660.63603    1029.4451    2017.1247 
     700          0.7     655.8687    1029.4451    2200.9602 
     710         0.71    647.93788    1029.4451    2561.2913 
     720         0.72    638.84226    1029.4451    3052.9538 
     730         0.73    634.98945    1029.4451    3594.1699 
     740         0.74    640.31564    1029.4451    3999.1931 
     750         0.75    651.38954    1029.4451    4338.0094 
     760         0.76    663.33916    1029.4451    4750.7042 
     770         0.77    674.60733    1029.4451    5292.2316 
     780         0.78    684.57022    1029.4451    5975.5248 
     790         0.79    691.82991    1029.4451    6837.6049 
     800          0.8     694.6189    1029.4451    7928.3481 
     810         0.81    689.30268    1029.4451     9364.952 
     820         0.82    674.45445    1029.4451    11079.321 
     830         0.83    657.41962    1029.4451    12778.725 
     840         0.84    651.34909    1029.4451    14108.269 
     850         0.85    664.18999    1029.4451    14702.867 
     860         0.86    695.11388    1029.4451    14574.625 
     870         0.87    734.63276    1029.4451    14053.936 
     880         0.88    767.07721    1029.4451    13451.867 
     890         0.89    782.60803    1029.4451    13153.087 
     900          0.9    786.38265    1029.4451    13077.572 
     910         0.91    791.61184    1029.4451    12852.096 
     920         0.92    803.79934    1029.4451     12298.67 
     930         0.93    813.99091    1029.4451    11734.579 
     940         0.94    808.74072    1029.4451    11535.927 
     950         0.95    785.83717    1029.4451     11868.05 
     960         0.96    758.23523    1029.4451    12316.543 
     970         0.97    742.72914    1029.4451    12344.161 
     980         0.98    744.42414    1029.4451    11658.998 
     990         0.99     753.6599    1029.4451    10536.833 
    1000            1    761.57441    1029.4451    9193.1416 
Loop time of 17.176 on 1 procs for 900 steps with 64 atoms

Performance: 4.527 ns/day, 5.301 hours/ns, 52.399 timesteps/s
100.0% CPU use with 1 MPI tasks x no OpenMP threads

MPI task timing breakdown:
Section |  min time  |  avg time  |  max time  |%varavg| %total
---------------------------------------------------------------
Pair    | 17.168     | 17.168     | 17.168     |   0.0 | 99.95
Neigh   | 0.0029487  | 0.0029487  | 0.0029487  |   0.0 |  0.02
Comm    | 0.0027889  | 0.0027889  | 0.0027889  |   0.0 |  0.02
Output  | 0.00037484 | 0.00037484 | 0.00037484 |   0.0 |  0.00
Modify  | 0.0015708  | 0.0015708  | 0.0015708  |   0.0 |  0.01
Other   |            | 0.0006545  |            |       |  0.00

Nlocal:        64.0000 ave          64 max          64 min
Histogram: 1 0 0 0 0 0 0 0 0 0
Nghost:        867.000 ave         867 max         867 min
Histogram: 1 0 0 0 0 0 0 0 0 0
Neighs:         0.00000 ave           0 max           0 min
Histogram: 1 0 0 0 0 0 0 0 0 0
FullNghs:      5646.00 ave        5646 max        5646 min
Histogram: 1 0 0 0 0 0 0 0 0 0

Total # of neighbors = 5646
Ave neighs/atom = 88.218750
Neighbor list builds = 16
Dangerous builds = 0
Setting up Verlet run ...
  Unit style    : metal
  Current step  : 1000
  Time step     : 0.001
Per MPI rank memory allocation (min/avg/max) = 3.090 | 3.090 | 3.090 Mbytes
Step Time Temp Volume Press 
    1000            1    761.57441    1029.4451    9193.1416 
    1100          1.1    691.06296    1029.4451    4653.2932 
    1200          1.2    637.83295    1029.4451    5887.5369 
    1300          1.3    707.72111    1029.4451    5845.2447 
    1400          1.4    712.65876    1029.4451    10820.464 
    1500          1.5    937.35414    1029.4451    13809.015 
    1600          1.6     761.1015    1029.4451    14318.274 
    1700          1.7    662.54257    1029.4451     9975.089 
    1800          1.8    770.81077    1029.4451    2500.4847 
    1900          1.9     662.6442    1029.4451    2312.0928 
    2000            2     512.2037    1029.4451    6981.4529 
    2100          2.1    649.23757    1029.4451    6564.4518 
    2200          2.2    713.42568    1029.4451     11592.84 
    2300          2.3    674.72885    1029.4451    12446.279 
    2400          2.4    633.36036    1029.4451    8830.7684 
    2500          2.5    655.23526    1029.4451    3616.2731 
    2600          2.6    632.85072    1029.4451    4662.6763 
    2700          2.7    814.86791    1029.4451   -2156.3459 
    2800          2.8    663.90021    1029.4451    4331.1165 
    2900          2.9     663.2906    1029.4451    7203.7336 
    3000            3    668.53371    1029.4451    11491.772 
    3100          3.1    869.07024    1029.4451    8175.3862 
    3200          3.2    748.80073    1029.4451    8654.8733 
    3300          3.3    647.67886    1029.4451    9533.0125 
    3400          3.4    624.95663    1029.4451     9841.359 
    3500          3.5    712.65314    1029.4451     6719.139 
    3600          3.6    697.76022    1029.4451    8385.0659 
    3700          3.7    649.81465    1029.4451    8950.8493 
    3800          3.8    631.77903    1029.4451    6005.5383 
    3900          3.9    711.89245    1029.4451    -235.3188 
    4000            4    678.26533    1029.4451    582.79408 
    4100          4.1    695.84442    1029.4451    3761.4748 
    4200          4.2    659.95153    1029.4451    11591.535 
    4300          4.3    649.16308    1029.4451    12130.117 
    4400          4.4     746.8872    1029.4451    5253.3032 
    4500          4.5    635.23819    1029.4451    2231.5373 
    4600          4.6    643.41618    1029.4451    1953.6769 
    4700          4.7    652.87696    1029.4451    5513.7874 
    4800          4.8    709.63032    1029.4451    9544.3625 
    4900          4.9    658.38009    1029.4451    12948.397 
    5000            5     721.8181    1029.4451    9633.7522 
    5100          5.1    621.91506    1029.4451    10428.527 
    5200          5.2    601.63104    1029.4451    9174.3449 
    5300          5.3    792.95468    1029.4451    9157.9196 
    5400          5.4     686.0429    1029.4451    13523.789 
    5500          5.5    705.30651    1029.4451    9793.7598 
    5600          5.6    691.16038    1029.4451    5287.1142 
    5700          5.7    605.29903    1029.4451    6752.4066 
    5800          5.8    694.80076    1029.4451    7274.2251 
    5900          5.9    750.22764    1029.4451    11771.737 
    6000            6    740.86664    1029.4451    10620.301 
    6100          6.1    704.74469    1029.4451    11025.286 
    6200          6.2    685.60449    1029.4451    9356.6519 
    6300          6.3    662.91448    1029.4451    6158.2208 
    6400          6.4    610.63572    1029.4451     3832.031 
    6500          6.5    553.28621    1029.4451    4120.1177 
    6600          6.6    699.61575    1029.4451    7610.5113 
    6700          6.7    724.28993    1029.4451    10581.571 
    6800          6.8    806.23013    1029.4451    4971.3947 
    6900          6.9    539.83243    1029.4451    10706.543 
    7000            7    720.09035    1029.4451    4218.2343 
    7100          7.1    661.21291    1029.4451    5502.9327 
    7200          7.2    664.16624    1029.4451    6330.4906 
    7300          7.3    788.59181    1029.4451    9995.6843 
    7400          7.4    784.36123    1029.4451    11591.764 
    7500          7.5    723.92987    1029.4451     6813.535 
    7600          7.6    721.01303    1029.4451    4133.9122 
    7700          7.7    701.95005    1029.4451    675.36055 
    7800          7.8    671.82295    1029.4451      1065.93 
    7900          7.9    739.16807    1029.4451    9860.4257 
    8000            8    760.20299    1029.4451    11448.079 
    8100          8.1    705.96826    1029.4451    9427.8183 
    8200          8.2    649.50132    1029.4451    7866.1673 
    8300          8.3    733.63638    1029.4451    -549.8588 
    8400          8.4    533.21459    1029.4451    3285.0138 
    8500          8.5    628.80249    1029.4451    1703.4893 
    8600          8.6    585.81784    1029.4451    7126.0425 
    8700          8.7    589.62746    1029.4451    11547.121 
    8800          8.8    649.83873    1029.4451    11520.065 
    8900          8.9    754.92917    1029.4451    5715.9599 
    9000            9    608.73291    1029.4451    4876.8594 
    9100          9.1    607.98326    1029.4451    3089.5301 
    9200          9.2    674.89558    1029.4451    2654.9046 
    9300          9.3    676.14976    1029.4451    12392.411 
    9400          9.4    700.82002    1029.4451    12301.648 
    9500          9.5    620.93743    1029.4451    11542.998 
    9600          9.6    683.16826    1029.4451    7167.9156 
    9700          9.7    639.15113    1029.4451    8815.2416 
    9800          9.8    695.78823    1029.4451    9036.4436 
    9900          9.9    671.42794    1029.4451    14030.361 
   10000           10    825.42808    1029.4451    8515.1768 
Loop time of 175.052 on 1 procs for 9000 steps with 64 atoms

Performance: 4.442 ns/day, 5.403 hours/ns, 51.413 timesteps/s
100.0% CPU use with 1 MPI tasks x no OpenMP threads

MPI task timing breakdown:
Section |  min time  |  avg time  |  max time  |%varavg| %total
---------------------------------------------------------------
Pair    | 174.97     | 174.97     | 174.97     |   0.0 | 99.95
Neigh   | 0.030706   | 0.030706   | 0.030706   |   0.0 |  0.02
Comm    | 0.028413   | 0.028413   | 0.028413   |   0.0 |  0.02
Output  | 0.00052411 | 0.00052411 | 0.00052411 |   0.0 |  0.00
Modify  | 0.01649    | 0.01649    | 0.01649    |   0.0 |  0.01
Other   |            | 0.006477   |            |       |  0.00

Nlocal:        64.0000 ave          64 max          64 min
Histogram: 1 0 0 0 0 0 0 0 0 0
Nghost:        835.000 ave         835 max         835 min
Histogram: 1 0 0 0 0 0 0 0 0 0
Neighs:         0.00000 ave           0 max           0 min
Histogram: 1 0 0 0 0 0 0 0 0 0
FullNghs:      5656.00 ave        5656 max        5656 min
Histogram: 1 0 0 0 0 0 0 0 0 0

Total # of neighbors = 5656
Ave neighs/atom = 88.375000
Neighbor list builds = 165
Dangerous builds = 0
System init for write_data ...
Total wall time: 0:03:14
