ITEM: TIMESTEP
10000
ITEM: NUMBER OF ATOMS
64
ITEM: BOX BOUNDS xy xz yz pp pp pp
0.0000000000000000e+00 1.0640000000001363e+01 0.0000000000000000e+00
0.0000000000000000e+00 9.2145102962676049e+00 0.0000000000000000e+00
0.0000000000000000e+00 1.0500000000000000e+01 0.0000000000000000e+00
ITEM: ATOMS id type x y z
1 1 0.862397 5.64432 4.10479
2 1 2.40603 4.90412 9.07898
3 1 10.2828 7.76796 4.29604
4 1 1.26166 7.25499 9.01794
5 1 6.16252 0.912694 3.99965
6 1 7.67926 9.02614 9.06653
7 1 5.04635 3.41297 3.87385
8 1 6.69571 2.38567 9.3629
9 1 1.00336 1.30926 4.13138
10 1 2.59886 0.183017 9.61777
11 1 10.3084 3.47547 3.47319
12 1 0.916569 2.31954 8.91748
13 1 3.61154 1.15447 3.54313
14 1 5.13894 0.347848 8.4722
15 1 2.44646 3.23548 4.4218
16 1 3.6431 2.20803 8.93091
17 1 6.06544 5.78164 3.42315
18 1 7.73531 4.77373 9.41306
19 1 4.89205 7.98941 3.55691
20 1 6.48634 6.85693 9.17028
21 1 8.6463 5.32771 4.02247
22 1 10.6056 4.84996 9.05881
23 1 7.68895 7.90435 4.25407
24 1 9.40565 7.0566 9.10151
25 1 3.60929 5.66714 4.30658
26 1 5.08582 4.52221 9.70311
27 1 2.17168 8.08047 3.98473
28 1 3.72569 7.35333 9.10735
29 1 8.77803 1.24511 3.70132
30 1 10.4204 0.0873207 9.7273
31 1 7.47848 3.32156 3.84394
32 1 9.13431 2.41227 9.15355
33 1 5.06345 1.60981 0.933663
34 1 4.86442 1.80851 6.12094
35 1 3.59049 4.19695 1.81118
36 1 3.87264 4.06952 6.53866
37 1 2.219 6.51885 1.63458
38 1 2.19405 6.23691 6.51722
39 1 0.993283 8.6936 1.52084
40 1 0.679447 8.79453 6.93155
41 1 10.3798 1.50766 1.47794
42 1 9.85018 1.81561 5.97295
43 1 2.66231 2.06448 1.34459
44 1 2.26049 1.87797 6.5855
45 1 1.17524 4.25534 0.84939
46 1 0.911673 4.13112 6.34789
47 1 10.1705 6.33259 1.17368
48 1 10.2371 6.16895 6.7852
49 1 9.1797 3.74629 1.04855
50 1 8.81902 4.16955 6.44449
51 1 7.69735 5.83505 1.26349
52 1 7.70877 6.38434 6.80436
53 1 6.22307 8.59943 1.29385
54 1 6.31449 8.49233 6.80657
55 1 8.95446 8.23991 1.73715
56 1 8.88556 8.75073 6.52635
57 1 7.77062 1.4381 1.20501
58 1 7.36616 1.88087 6.49503
59 1 6.16137 3.86331 1.53504
60 1 6.46748 4.15575 7.19618
61 1 5.00485 6.33741 0.819975
62 1 5.09701 6.11369 6.50891
63 1 3.61144 8.51671 1.24414
64 1 3.38136 8.70125 6.68843
