LAMMPS (29 Sep 2021 - Update 1)
Reading data file ...
  triclinic box = (0.0000000 0.0000000 0.0000000) to (10.600000 9.1798693 9.9400000) with tilt (0.0000000 0.0000000 0.0000000)
  1 by 1 by 1 MPI processor grid
  reading atoms ...
  64 atoms
  read_data CPU = 0.001 seconds
Neighbor list info ...
  update every 1 steps, delay 0 steps, check yes
  max neighbors/atom: 2000, page size: 100000
  master list distance cutoff = 7
  ghost atom cutoff = 7
  binsize = 3.5, bins = 4 3 3
  1 neighbor lists, perpetual/occasional/extra = 1 0 0
  (1) pair mlip, perpetual
      attributes: full, newton on
      pair build: full/bin/atomonly
      stencil: full/bin/3d
      bin: standard
Setting up Verlet run ...
  Unit style    : metal
  Current step  : 0
  Time step     : 0.001
Per MPI rank memory allocation (min/avg/max) = 3.089 | 3.089 | 3.089 Mbytes
Step Time Temp Volume Press 
       0            0         1380    967.22775    8818.3849 
       1        0.001    1379.1288    967.22775    8848.3364 
       2        0.002    1376.5215    967.22775    8937.9489 
       3        0.003    1372.1942    967.22775    9086.7365 
       4        0.004    1366.1688    967.22775    9292.5651 
       5        0.005    1358.4741    967.22775    9552.0837 
       6        0.006    1349.1457    967.22775     9860.384 
       7        0.007    1338.2246    967.22775     10218.65 
       8        0.008    1325.7564    967.22775    10627.092 
       9        0.009    1311.7916    967.22775    11082.977 
      10         0.01    1296.3858    967.22775    11586.593 
Loop time of 0.200013 on 1 procs for 10 steps with 64 atoms

Performance: 4.320 ns/day, 5.556 hours/ns, 49.997 timesteps/s
94.0% CPU use with 1 MPI tasks x no OpenMP threads

MPI task timing breakdown:
Section |  min time  |  avg time  |  max time  |%varavg| %total
---------------------------------------------------------------
Pair    | 0.19991    | 0.19991    | 0.19991    |   0.0 | 99.95
Neigh   | 0          | 0          | 0          |   0.0 |  0.00
Comm    | 2.9235e-05 | 2.9235e-05 | 2.9235e-05 |   0.0 |  0.01
Output  | 3.5699e-05 | 3.5699e-05 | 3.5699e-05 |   0.0 |  0.02
Modify  | 2.5711e-05 | 2.5711e-05 | 2.5711e-05 |   0.0 |  0.01
Other   |            | 9.707e-06  |            |       |  0.00

Nlocal:        64.0000 ave          64 max          64 min
Histogram: 1 0 0 0 0 0 0 0 0 0
Nghost:        886.000 ave         886 max         886 min
Histogram: 1 0 0 0 0 0 0 0 0 0
Neighs:         0.00000 ave           0 max           0 min
Histogram: 1 0 0 0 0 0 0 0 0 0
FullNghs:      5504.00 ave        5504 max        5504 min
Histogram: 1 0 0 0 0 0 0 0 0 0

Total # of neighbors = 5504
Ave neighs/atom = 86.000000
Neighbor list builds = 0
Dangerous builds = 0
Setting up Verlet run ...
  Unit style    : metal
  Current step  : 10
  Time step     : 0.001
Per MPI rank memory allocation (min/avg/max) = 3.089 | 3.089 | 3.089 Mbytes
Step Time Temp Volume Press 
      10         0.01    1296.3858    967.22775    11586.593 
      11        0.011     1279.599    967.22775    12137.658 
      12        0.012    1261.4958    967.22775    12734.613 
      13        0.013    1242.1456    967.22775    13375.371 
      14        0.014    1221.6224    967.22775    14058.025 
      15        0.015    1200.0041    967.22775    14781.149 
      16        0.016    1177.3733    967.22775    15541.835 
      17        0.017     1153.816    967.22775     16337.26 
      18        0.018    1129.4222    967.22775    17164.882 
      19        0.019    1104.2851    967.22775    18021.807 
      20         0.02    1078.5009    967.22775    18904.747 
      21        0.021    1052.1684    967.22775    19810.516 
      22        0.022    1025.3883    967.22775    20735.308 
      23        0.023    998.26254    967.22775    21675.039 
      24        0.024    970.89376    967.22775    22625.296 
      25        0.025    943.38531    967.22775     23584.42 
      26        0.026    915.84103    967.22775    24549.075 
      27        0.027    888.36398    967.22775    25515.347 
      28        0.028    861.05553    967.22775    26478.996 
      29        0.029    834.01514    967.22775    27437.665 
      30         0.03    807.33972    967.22775    28387.773 
      31        0.031     781.1227    967.22775    29325.871 
      32        0.032    755.45365    967.22775    30249.257 
      33        0.033    730.41764    967.22775    31154.889 
      34        0.034    706.09459    967.22775     32039.58 
      35        0.035    682.55874    967.22775    32901.332 
      36        0.036    659.87814    967.22775    33737.204 
      37        0.037    638.11403    967.22775    34544.608 
      38        0.038    617.32067    967.22775     35321.86 
      39        0.039    597.54528    967.22775    36067.818 
      40         0.04     578.8277    967.22775    36780.907 
      41        0.041    561.20007    967.22775    37459.675 
      42        0.042    544.68684    967.22775    38103.111 
      43        0.043    529.30474    967.22775    38710.235 
      44        0.044    515.06284    967.22775    39279.607 
      45        0.045    501.96284    967.22775     39811.64 
      46        0.046    489.99945    967.22775    40306.738 
      47        0.047    479.16048    967.22775    40764.155 
      48        0.048    469.42722    967.22775    41184.899 
      49        0.049    460.77496    967.22775    41569.816 
      50         0.05    453.17339    967.22775    41918.737 
      51        0.051    446.58713    967.22775    42232.579 
      52        0.052    440.97656    967.22775    42511.198 
      53        0.053    436.29795    967.22775     42757.54 
      54        0.054    432.50362    967.22775    42970.176 
      55        0.055    429.54284    967.22775    43152.356 
      56        0.056    427.36293    967.22775    43306.215 
      57        0.057    425.90921    967.22775    43430.474 
      58        0.058    425.12574    967.22775    43529.273 
      59        0.059    424.95622    967.22775    43604.773 
      60         0.06    425.34387    967.22775    43656.628 
      61        0.061    426.23211    967.22775    43688.901 
      62        0.062    427.56498    967.22775    43700.929 
      63        0.063     429.2874    967.22775    43695.805 
      64        0.064     431.3459    967.22775    43675.445 
      65        0.065    433.68873    967.22775    43642.783 
      66        0.066    436.26604    967.22775    43597.683 
      67        0.067     439.0299    967.22775    43542.082 
      68        0.068    441.93469    967.22775    43480.181 
      69        0.069    444.93738    967.22775    43413.497 
      70         0.07    447.99748    967.22775    43342.618 
      71        0.071    451.07722    967.22775    43269.631 
      72        0.072    454.14143    967.22775    43194.907 
      73        0.073    457.15764    967.22775     43120.36 
      74        0.074    460.09609    967.22775    43047.237 
      75        0.075    462.92967    967.22775    42976.747 
      76        0.076     465.6338    967.22775    42909.635 
      77        0.077    468.18638    967.22775    42845.514 
      78        0.078    470.56787    967.22775    42785.091 
      79        0.079    472.76126    967.22775    42730.594 
      80         0.08    474.75186    967.22775    42681.028 
      81        0.081    476.52732    967.22775     42638.15 
      82        0.082    478.07776    967.22775    42602.393 
      83        0.083    479.39568    967.22775    42574.689 
      84        0.084    480.47588    967.22775    42555.191 
      85        0.085    481.31535    967.22775    42543.791 
      86        0.086    481.91311    967.22775    42539.904 
      87        0.087    482.26984    967.22775    42541.368 
      88        0.088    482.38826    967.22775    42550.467 
      89        0.089    482.27363    967.22775    42567.255 
      90         0.09    481.93341    967.22775    42591.522 
      91        0.091      481.377    967.22775    42622.784 
      92        0.092    480.61559    967.22775    42661.393 
      93        0.093    479.66212    967.22775    42705.563 
      94        0.094    478.53168    967.22775    42756.029 
      95        0.095    477.24156    967.22775    42811.597 
      96        0.096    475.81099    967.22775    42871.385 
      97        0.097    474.26119    967.22775    42934.906 
      98        0.098    472.61505    967.22775    43000.092 
      99        0.099    470.89714    967.22775    43065.999 
     100          0.1    469.13383    967.22775    43132.114 
Loop time of 1.7806 on 1 procs for 90 steps with 64 atoms

Performance: 4.367 ns/day, 5.496 hours/ns, 50.545 timesteps/s
100.0% CPU use with 1 MPI tasks x no OpenMP threads

MPI task timing breakdown:
Section |  min time  |  avg time  |  max time  |%varavg| %total
---------------------------------------------------------------
Pair    | 1.7796     | 1.7796     | 1.7796     |   0.0 | 99.95
Neigh   | 0.00018253 | 0.00018253 | 0.00018253 |   0.0 |  0.01
Comm    | 0.00027331 | 0.00027331 | 0.00027331 |   0.0 |  0.02
Output  | 0.00028687 | 0.00028687 | 0.00028687 |   0.0 |  0.02
Modify  | 0.00014857 | 0.00014857 | 0.00014857 |   0.0 |  0.01
Other   |            | 6.73e-05   |            |       |  0.00

Nlocal:        64.0000 ave          64 max          64 min
Histogram: 1 0 0 0 0 0 0 0 0 0
Nghost:        886.000 ave         886 max         886 min
Histogram: 1 0 0 0 0 0 0 0 0 0
Neighs:         0.00000 ave           0 max           0 min
Histogram: 1 0 0 0 0 0 0 0 0 0
FullNghs:      6046.00 ave        6046 max        6046 min
Histogram: 1 0 0 0 0 0 0 0 0 0

Total # of neighbors = 6046
Ave neighs/atom = 94.468750
Neighbor list builds = 1
Dangerous builds = 0
Setting up Verlet run ...
  Unit style    : metal
  Current step  : 100
  Time step     : 0.001
Per MPI rank memory allocation (min/avg/max) = 3.089 | 3.089 | 3.089 Mbytes
Step Time Temp Volume Press 
     100          0.1    469.13383    967.22775    43132.114 
     110         0.11    455.74839    967.22775    43604.431 
     120         0.12     471.7256    967.22775    43102.143 
     130         0.13    530.90062    967.22775    41232.995 
     140         0.14    609.95098    967.22775    38697.747 
     150         0.15    669.56123    967.22775    36760.618 
     160         0.16    689.60716    967.22775    36205.915 
     170         0.17    675.60183    967.22775    36896.912 
     180         0.18    646.90321    967.22775    38142.385 
     190         0.19    628.48365    967.22775    39126.825 
     200          0.2    637.92501    967.22775    39320.755 
     210         0.21    668.22242    967.22775    38856.207 
     220         0.22    694.85008    967.22775    38433.781 
     230         0.23    701.22388    967.22775     38575.66 
     240         0.24    690.88669    967.22775    39201.219 
     250         0.25    678.13249    967.22775    39970.567 
     260         0.26    673.23239    967.22775    40526.095 
     270         0.27    678.51482    967.22775    40847.074 
     280         0.28    690.62277    967.22775    41030.479 
     290         0.29    702.50625    967.22775    41343.003 
     300          0.3    708.27237    967.22775    41849.797 
     310         0.31    710.60398    967.22775     42423.13 
     320         0.32    716.69358    967.22775    42791.573 
     330         0.33    726.64948    967.22775    42832.303 
     340         0.34    735.48585    967.22775    42610.627 
     350         0.35    742.74622    967.22775    42161.712 
     360         0.36    754.36941    967.22775    41392.995 
     370         0.37    776.68574    967.22775    40380.306 
     380         0.38    801.63026    967.22775     39458.01 
     390         0.39    804.34046    967.22775    39309.765 
     400          0.4    773.67983    967.22775    40084.863 
     410         0.41    733.12403    967.22775    41049.697 
     420         0.42    713.85777    967.22775    41245.868 
     430         0.43    721.79391    967.22775    40512.077 
     440         0.44    741.61077    967.22775    39223.591 
     450         0.45    758.50872    967.22775    37916.928 
     460         0.46    767.21799    967.22775    36898.552 
     470         0.47    762.83725    967.22775    36385.575 
     480         0.48    735.34995    967.22775    36613.224 
     490         0.49    680.54892    967.22775    37619.581 
     500          0.5    611.25565    967.22775     39108.58 
     510         0.51    553.94662    967.22775     40316.24 
     520         0.52    531.13906    967.22775    40503.665 
     530         0.53    544.28069    967.22775    39615.797 
     540         0.54    575.26543    967.22775    38135.168 
     550         0.55    604.72744    967.22775     36672.02 
     560         0.56    626.90774    967.22775    35471.812 
     570         0.57    647.19586    967.22775    34444.774 
     580         0.58    670.69203    967.22775    33439.929 
     590         0.59    694.63442    967.22775    32515.295 
     600          0.6    709.09828    967.22775    32032.968 
     610         0.61    706.48557    967.22775     32240.59 
     620         0.62    689.31246    967.22775    32942.703 
     630         0.63     666.5125    967.22775    33849.014 
     640         0.64    646.10713    967.22775    34721.501 
     650         0.65    635.38975    967.22775    35284.965 
     660         0.66    639.11606    967.22775    35350.039 
     670         0.67    652.68069    967.22775    35049.233 
     680         0.68    667.48144    967.22775    34617.477 
     690         0.69    681.37516    967.22775    34228.168 
     700          0.7    693.65904    967.22775    33959.834 
     710         0.71    701.18572    967.22775    33839.911 
     720         0.72    704.05133    967.22775    33950.257 
     730         0.73    701.17457    967.22775    34284.579 
     740         0.74    686.78217    967.22775    35019.487 
     750         0.75    658.67693    967.22775    36141.069 
     760         0.76    626.07024    967.22775    37297.024 
     770         0.77    606.74798    967.22775    37968.386 
     780         0.78    610.35725    967.22775    38026.176 
     790         0.79    624.84773    967.22775    37897.552 
     800          0.8    633.55838    967.22775    37896.022 
     810         0.81    640.55229    967.22775    37818.486 
     820         0.82    662.32325    967.22775    37262.517 
     830         0.83    702.14258    967.22775    36111.614 
     840         0.84    745.77077    967.22775    34850.076 
     850         0.85     773.3399    967.22775    34070.161 
     860         0.86    769.91866    967.22775    34361.557 
     870         0.87    738.01561    967.22775     35540.87 
     880         0.88    703.80903    967.22775    36760.315 
     890         0.89    696.73464    967.22775    37299.192 
     900          0.9    715.09072    967.22775    37178.077 
     910         0.91     728.9197    967.22775    37199.786 
     920         0.92    717.78196    967.22775    37846.642 
     930         0.93    687.36747    967.22775    38978.885 
     940         0.94    655.23923    967.22775    40117.662 
     950         0.95    633.48015    967.22775    40899.502 
     960         0.96    625.67093    967.22775    41246.677 
     970         0.97    626.07664    967.22775    41386.224 
     980         0.98    623.00337    967.22775    41591.142 
     990         0.99     617.3524    967.22775    41757.726 
    1000            1    627.49292    967.22775    41195.049 
Loop time of 19.1924 on 1 procs for 900 steps with 64 atoms

Performance: 4.052 ns/day, 5.924 hours/ns, 46.894 timesteps/s
100.0% CPU use with 1 MPI tasks x no OpenMP threads

MPI task timing breakdown:
Section |  min time  |  avg time  |  max time  |%varavg| %total
---------------------------------------------------------------
Pair    | 19.184     | 19.184     | 19.184     |   0.0 | 99.96
Neigh   | 0.0029057  | 0.0029057  | 0.0029057  |   0.0 |  0.02
Comm    | 0.0028098  | 0.0028098  | 0.0028098  |   0.0 |  0.01
Output  | 0.00036784 | 0.00036784 | 0.00036784 |   0.0 |  0.00
Modify  | 0.0014749  | 0.0014749  | 0.0014749  |   0.0 |  0.01
Other   |            | 0.0006449  |            |       |  0.00

Nlocal:        64.0000 ave          64 max          64 min
Histogram: 1 0 0 0 0 0 0 0 0 0
Nghost:        882.000 ave         882 max         882 min
Histogram: 1 0 0 0 0 0 0 0 0 0
Neighs:         0.00000 ave           0 max           0 min
Histogram: 1 0 0 0 0 0 0 0 0 0
FullNghs:      5992.00 ave        5992 max        5992 min
Histogram: 1 0 0 0 0 0 0 0 0 0

Total # of neighbors = 5992
Ave neighs/atom = 93.625000
Neighbor list builds = 15
Dangerous builds = 0
Setting up Verlet run ...
  Unit style    : metal
  Current step  : 1000
  Time step     : 0.001
Per MPI rank memory allocation (min/avg/max) = 3.089 | 3.089 | 3.089 Mbytes
Step Time Temp Volume Press 
    1000            1    627.49292    967.22775    41195.049 
    1100          1.1    578.36885    967.22775     41907.56 
    1200          1.2    784.44801    967.22775    33992.374 
    1300          1.3    563.13506    967.22775    38386.671 
    1400          1.4    689.98846    967.22775    31924.044 
    1500          1.5    723.77496    967.22775    35388.344 
    1600          1.6    686.79305    967.22775    43198.272 
    1700          1.7    647.61254    967.22775    45017.774 
    1800          1.8    739.77916    967.22775    37262.894 
    1900          1.9    547.94002    967.22775    37645.277 
    2000            2    670.10203    967.22775    35416.209 
    2100          2.1    645.45276    967.22775    37365.121 
    2200          2.2    763.73243    967.22775    38556.792 
    2300          2.3    727.20522    967.22775    45943.548 
    2400          2.4    720.14108    967.22775    49148.761 
    2500          2.5    653.08422    967.22775    44966.756 
    2600          2.6    673.12958    967.22775    37318.622 
    2700          2.7    613.48417    967.22775    39036.546 
    2800          2.8    844.71935    967.22775    32171.783 
    2900          2.9    662.82262    967.22775    37194.859 
    3000            3    639.86997    967.22775    38126.452 
    3100          3.1    762.62824    967.22775    34803.295 
    3200          3.2    741.35908    967.22775    38599.571 
    3300          3.3    766.36255    967.22775    38192.377 
    3400          3.4    616.70955    967.22775    40746.809 
    3500          3.5    663.92045    967.22775    37933.233 
    3600          3.6    608.79582    967.22775    37798.617 
    3700          3.7    669.68413    967.22775    34534.693 
    3800          3.8    698.70718    967.22775    34399.329 
    3900          3.9    704.84539    967.22775    39742.964 
    4000            4    913.60502    967.22775    35676.919 
    4100          4.1     715.9701    967.22775     41662.67 
    4200          4.2    640.70225    967.22775    38086.886 
    4300          4.3    701.52597    967.22775    34857.747 
    4400          4.4    652.99628    967.22775    37240.393 
    4500          4.5    703.20358    967.22775    37120.043 
    4600          4.6    699.14025    967.22775    43513.403 
    4700          4.7    744.57168    967.22775    47796.392 
    4800          4.8    747.54926    967.22775    44246.109 
    4900          4.9    690.87843    967.22775    40894.352 
    5000            5    716.92138    967.22775    36063.209 
    5100          5.1    713.31618    967.22775    34679.569 
    5200          5.2    644.86545    967.22775     32931.63 
    5300          5.3    594.16438    967.22775     33313.26 
    5400          5.4    595.43806    967.22775    36964.467 
    5500          5.5    731.77345    967.22775    39761.036 
    5600          5.6    747.41809    967.22775     38961.09 
    5700          5.7    695.21527    967.22775        39598 
    5800          5.8    630.04331    967.22775    36629.671 
    5900          5.9    638.43254    967.22775    30980.489 
    6000            6    696.21589    967.22775    32047.849 
    6100          6.1    731.13697    967.22775    39058.882 
    6200          6.2    752.23962    967.22775    40915.751 
    6300          6.3     746.4658    967.22775    38531.729 
    6400          6.4    585.04385    967.22775    40250.226 
    6500          6.5    612.88753    967.22775    38034.112 
    6600          6.6     686.8073    967.22775    36727.493 
    6700          6.7    737.35299    967.22775    37290.963 
    6800          6.8    738.03987    967.22775    36191.348 
    6900          6.9    721.51413    967.22775    38212.023 
    7000            7    685.24998    967.22775    35891.256 
    7100          7.1    585.01511    967.22775    36078.214 
    7200          7.2     574.0837    967.22775    36628.367 
    7300          7.3     721.9753    967.22775    35445.174 
    7400          7.4     750.5939    967.22775    40182.846 
    7500          7.5    746.09536    967.22775    38710.683 
    7600          7.6    651.40325    967.22775    33848.146 
    7700          7.7    563.73022    967.22775    32401.964 
    7800          7.8    682.20109    967.22775    32118.657 
    7900          7.9     717.1933    967.22775    34948.316 
    8000            8    774.16579    967.22775    36090.502 
    8100          8.1    875.90333    967.22775    37521.432 
    8200          8.2    701.46712    967.22775    43323.846 
    8300          8.3     709.3722    967.22775    35959.303 
    8400          8.4    649.48242    967.22775    34240.737 
    8500          8.5      658.574    967.22775    34358.689 
    8600          8.6    706.98798    967.22775    38995.375 
    8700          8.7    835.09407    967.22775    40357.037 
    8800          8.8    823.57923    967.22775     38794.48 
    8900          8.9    647.87529    967.22775    37259.573 
    9000            9    664.99291    967.22775    36038.299 
    9100          9.1    584.66614    967.22775    41079.248 
    9200          9.2    757.13873    967.22775     39082.51 
    9300          9.3    741.48438    967.22775    43960.477 
    9400          9.4    638.57139    967.22775     39405.17 
    9500          9.5     646.3236    967.22775    32746.459 
    9600          9.6    644.56556    967.22775    33525.954 
    9700          9.7    700.47513    967.22775    37738.717 
    9800          9.8    810.23847    967.22775    36205.257 
    9900          9.9     620.5142    967.22775    40281.575 
   10000           10    615.60787    967.22775    38598.604 
Loop time of 198.757 on 1 procs for 9000 steps with 64 atoms

Performance: 3.912 ns/day, 6.134 hours/ns, 45.281 timesteps/s
100.0% CPU use with 1 MPI tasks x no OpenMP threads

MPI task timing breakdown:
Section |  min time  |  avg time  |  max time  |%varavg| %total
---------------------------------------------------------------
Pair    | 198.67     | 198.67     | 198.67     |   0.0 | 99.96
Neigh   | 0.033878   | 0.033878   | 0.033878   |   0.0 |  0.02
Comm    | 0.031619   | 0.031619   | 0.031619   |   0.0 |  0.02
Output  | 0.00051434 | 0.00051434 | 0.00051434 |   0.0 |  0.00
Modify  | 0.016021   | 0.016021   | 0.016021   |   0.0 |  0.01
Other   |            | 0.007047   |            |       |  0.00

Nlocal:        64.0000 ave          64 max          64 min
Histogram: 1 0 0 0 0 0 0 0 0 0
Nghost:        886.000 ave         886 max         886 min
Histogram: 1 0 0 0 0 0 0 0 0 0
Neighs:         0.00000 ave           0 max           0 min
Histogram: 1 0 0 0 0 0 0 0 0 0
FullNghs:      5988.00 ave        5988 max        5988 min
Histogram: 1 0 0 0 0 0 0 0 0 0

Total # of neighbors = 5988
Ave neighs/atom = 93.562500
Neighbor list builds = 161
Dangerous builds = 0
System init for write_data ...
Total wall time: 0:03:40
