LAMMPS data file via write_data, version 29 Sep 2021, timestep = 10000

64 atoms
1 atom types

0 10.600000000000822 xlo xhi
0 9.179869280115762 ylo yhi
0 9.939999999999998 zlo zhi
0 0 0 xy xz yz

Masses

1 65.38

Atoms # atomic

1 1 1.5534532252635678 5.247146993069619 3.7606352185264535 0 0 0
2 1 1.3201270042696922 5.516018366825712 9.09504943625072 0 0 0
3 1 0.1292390533513453 7.6627994042074725 3.6863329912777774 0 0 0
4 1 10.405852958514808 7.645708097352013 8.962289886311368 -1 0 0
5 1 6.505313007846815 0.8671512046129234 3.821345919239902 0 0 0
6 1 6.5811962473234775 0.7663343597336518 8.455195559698224 0 0 0
7 1 5.255998183807389 3.341133905057872 3.585147529467128 0 0 0
8 1 5.5120137805854705 3.006064015994755 8.69952408744839 0 0 0
9 1 1.5289163177909317 0.9548024577808035 3.9022598870687553 0 0 0
10 1 1.277751281525803 0.804783453497209 8.786360552912953 0 0 0
11 1 0.09774767848959119 3.100684088736604 3.626234671829943 0 0 0
12 1 10.433941869024766 3.151766850463559 8.430855058968072 -1 0 0
13 1 3.9713999884114703 0.7934762933283135 3.4522379359767026 0 0 0
14 1 3.9929354071424563 0.8665706967279773 8.463582569078842 0 0 0
15 1 2.8116370090268505 3.1584285285536593 3.3382537807123973 0 0 0
16 1 2.636077722856271 3.2512603237757385 8.286852517287661 0 0 0
17 1 6.827542825524872 5.320660115258735 3.8868299198386302 0 0 0
18 1 6.362902159947526 5.42551979396958 8.410975915560423 0 0 0
19 1 5.2775786271218506 7.5816313326544025 3.498129285894626 0 0 0
20 1 5.0946607853004835 7.694647763163481 8.681395335007554 0 0 0
21 1 9.35060834027806 5.6635038158102935 4.280944255010919 0 0 0
22 1 9.03668093553443 5.255577439253148 8.819156300850402 0 0 0
23 1 7.8582860050746435 7.619444886171834 3.7579986180722003 0 0 0
24 1 7.763383422177361 7.97072362299991 8.648149816010628 0 0 0
25 1 3.9013762485722348 5.42300138135575 3.554303661835957 0 0 0
26 1 3.719671287681081 5.576608471486311 8.695344440603284 0 0 0
27 1 2.589716885983019 7.684370182248071 3.395742832894543 0 0 0
28 1 2.4083301954163283 7.78332949797304 8.326950697847723 0 0 0
29 1 9.343117855388755 0.6032011431101364 3.891870857876005 0 0 0
30 1 9.339695753589194 0.848864108188909 9.149770355996775 0 0 0
31 1 8.351198343807663 3.122730454319955 4.0285530474112985 0 0 0
32 1 7.953547890529393 2.9933960440453067 8.622837506939266 0 0 0
33 1 5.24242506585424 1.3595933292188846 0.9802210909985561 0 0 0
34 1 5.330931509240419 1.5460011553213258 6.167482470409258 0 0 0
35 1 3.9212115815295636 4.008387403827877 0.9427457409033807 0 0 0
36 1 4.111067985082108 3.718674992883837 6.3354864222917495 0 0 0
37 1 2.346258564619064 6.015649076955123 1.578785746516874 0 0 0
38 1 2.5979351316968695 6.022099928025683 6.159631362363482 0 0 0
39 1 1.2288724851484347 8.292046485411714 1.0393553049977042 0 0 0
40 1 1.647112566718204 8.361882389511605 5.753625283495824 0 0 0
41 1 0.026700931947986735 1.4729537717329857 1.5652730348093322 0 0 0
42 1 0.17763220587404768 1.4135961702355964 6.671955619732406 0 0 0
43 1 2.677398036318982 1.6435946951549456 1.1907984257332105 0 0 0
44 1 2.7955099133668955 1.4294881109644402 6.3050680340458385 0 0 0
45 1 1.3598183710490603 3.8547176715320726 1.1777990266899696 0 0 0
46 1 1.3004601186729678 3.5724433383562686 5.984056695909976 0 0 0
47 1 10.416129524954034 5.929263868908207 1.1189997801803873 -1 0 0
48 1 0.027861490009120325 6.282171247008505 6.669133615382137 0 0 0
49 1 9.2958172804865 3.5664002141979347 0.7892409145557315 0 0 0
50 1 9.489685639689574 3.832288756161701 6.223971344558976 0 0 0
51 1 7.906305807459565 5.828489348644573 1.3883408521448057 0 0 0
52 1 7.781457231908308 6.478474505181459 6.528819336315271 0 0 0
53 1 6.563096084182422 8.23787652017656 1.2050916101262332 0 0 0
54 1 6.5509447371900205 8.315780177997658 5.9889069748654915 0 0 0
55 1 9.28385822538504 8.146616432105318 1.347588753326391 0 0 0
56 1 9.703802176370484 8.525986734544299 6.391055106817034 0 0 0
57 1 7.893439068901363 1.4304612177436467 1.6858872990729727 0 0 0
58 1 8.027015104038103 1.3842760060372146 6.617741786476795 0 0 0
59 1 6.33931260662917 3.639319233957993 0.8706754135980758 0 0 0
60 1 6.945469496873298 3.7588581529709715 6.29380258341634 0 0 0
61 1 5.331761851531345 6.020080255380375 1.457675176020093 0 0 0
62 1 5.150971109022517 5.950791107878266 6.143271581267991 0 0 0
63 1 3.842953290494196 8.540016068532568 1.0812115288127997 0 0 0
64 1 4.094886510620032 8.47619950541518 6.425191634456206 0 0 0

Velocities

1 -0.7418639537302408 -2.44139592567882 -2.2880200408179974
2 0.6171646075527027 0.25065014514166944 0.3328776833362481
3 -0.7238002633000126 3.2554548239595618 1.1770922213541881
4 4.946958733387554 1.3302741146946724 -0.7407165845061203
5 -3.6509395345292446 -0.7865721286816865 -0.679181547386176
6 2.6047730807887297 -3.0134456420825386 5.84825248859267
7 -8.40650909744828 -1.6114089794238866 -0.2386878755558705
8 -2.3315207267629035 -3.5333201232739104 2.670618823269286
9 -1.8995980859213442 3.2202821915510533 -0.911987543327586
10 -2.8449378763960502 2.4713262249184558 1.2730687076520317
11 1.1901700040177514 5.304073318649536 1.4495148004415357
12 5.082425725451922 3.197337413646979 2.0895203600609182
13 0.8944740376951407 2.369653341405651 0.2980750970208827
14 -1.7002930102970546 -2.0277200295916606 3.305236926038517
15 -1.211862624507323 2.027656225649845 2.416501787714323
16 0.8470339129935035 -2.7876360855376734 -3.451947465728883
17 -1.2585804466393498 -2.947170322836196 0.28038759296625887
18 0.2628390962128031 -0.27483856792760636 4.471785790656411
19 -0.7541390308500026 2.069569702802967 -0.34847622583455223
20 4.744174636939978 0.41578457535671787 -5.871768946754134
21 0.42761016644110356 -4.01491988365722 2.9823976293565857
22 -0.41173277664023294 0.5925988810002694 2.017677624584282
23 4.254900398776887 2.5227533091954224 0.47201240597114424
24 5.364597908171346 2.629569500394768 -1.107097436876617
25 -1.4189909975334745 -0.9842346194787633 2.4851494351649848
26 2.625576598368522 4.295127034051527 0.22607592175939198
27 -0.10236683867899375 0.5429399300082307 0.2851152460727587
28 -2.0634483597980475 -3.827746558119687 1.9787609982659284
29 1.4894935135168559 -2.1979786131471464 -1.9488110659075932
30 -2.929503677815035 1.9666127801341822 0.573110929010702
31 1.6943675277256889 0.9710556366646627 -4.4870476210870125
32 -0.5504154670882639 -0.4675411573994115 5.279976385029222
33 -1.0230869924466846 -4.552534136205994 -3.401527637090434
34 4.992580001080077 -1.7813398610775755 2.6265441742343136
35 -1.0545616375644191 1.528545983681961 -0.7543192397946347
36 -3.108912958475349 -3.4748339574242912 -4.72995915044045
37 -2.3581530475200667 2.3581300663263556 -1.7646033577321494
38 -0.8697229941803346 0.6116381383007052 -3.792086011454507
39 -2.838380912784138 -3.7344751210544347 0.4723049707084532
40 0.3115589323106878 2.8801137854370746 -0.9376159560038978
41 0.17176301955245082 0.24583896902243454 5.418940488734078
42 -1.0693670214886575 -0.9303565379061249 -0.019887239019750248
43 -0.3967393660768563 -3.215053566998199 -1.9298890576447965
44 -7.7489496896360155 2.572889229395442 -0.3419818049917082
45 4.1453244467044135 1.9811729613746183 0.19974115301804582
46 6.989663920740894 1.0220957014773224 2.6232798087925877
47 0.8170746707401809 4.0949509716885375 5.880170382565665
48 -3.199052604681871 -0.18939907649360757 -0.20265564913084957
49 0.2028062864615791 -2.9924278261656667 -4.937550944096466
50 -2.1565621329515037 -0.1789159597998562 2.0793519945768932
51 3.5268251218961906 -6.298445190680935 -5.167087026305769
52 -1.426216905007524 -3.99179052085541 -3.1411698253737925
53 4.261287653491663 0.42387514657762276 -1.7237058852653029
54 -1.9404613120518952 0.3546983742605302 -0.5109850104341788
55 -0.5662281458876424 0.5228308707781043 4.009938561443501
56 -2.8964953039934422 3.576338141148149 -1.6566303452443474
57 -1.7912385634919235 1.8380884437418752 -2.5696325542204894
58 -3.1758829319483866 1.3859753206572523 -1.7024403057636806
59 -1.0715691141839374 1.885458724934754 2.1677693475306405
60 1.7000050996834903 -3.8171798003812576 -1.9587224021008052
61 0.4818622919735405 2.242169656339184 -1.659786441867443
62 1.1702769910611894 -5.0880375514416825 -1.76455464911537
63 5.548500808080163 -0.9375193433142744 1.0761805874350419
64 0.3259952104892524 3.140707452267293 -1.726897476484515
