LAMMPS data file via write_data, version 29 Sep 2021, timestep = 10000

64 atoms
1 atom types

0 10.600000000000822 xlo xhi
0 9.179869280115762 ylo yhi
0 10.14 zlo zhi
0 0 0 xy xz yz

Masses

1 65.38

Atoms # atomic

1 1 1.3300385310151925 5.288482006994639 4.051217268509897 0 0 0
2 1 1.259211306714352 5.37640358705892 8.882184615223618 0 0 0
3 1 10.538162542596009 7.700097923800476 3.7618492313638523 -1 0 0
4 1 0.03559991787025574 7.669021449546851 8.8303078091093 0 0 0
5 1 6.665674183893907 0.5302778765740315 3.811160908866033 0 0 0
6 1 6.388817566400749 0.7125732193524733 8.74914879477069 0 0 0
7 1 5.369445404609326 3.0929125842782503 3.470827441870014 0 0 0
8 1 4.884853815042043 3.2538888967346233 9.12106503352029 0 0 0
9 1 1.592786773937468 0.5408792104055626 3.6957412512817864 0 0 0
10 1 1.028120425013005 0.8244425958334946 9.025313783814198 0 0 0
11 1 0.24389102794422185 2.9727950263036 3.7893913206966396 0 0 0
12 1 10.441638523532092 3.1383165569099263 9.100854021833507 -1 0 0
13 1 4.324394307670877 0.7463318324588687 3.7313113273900473 0 0 0
14 1 3.7456797002397635 0.6201773662739485 8.28854601059445 0 0 0
15 1 2.693726830250448 2.869689305338476 3.693208718996367 0 0 0
16 1 2.7532279800819204 3.3109354065253425 8.246690185231277 0 0 0
17 1 6.4589214361027745 5.376001511096016 4.051436553364667 0 0 0
18 1 6.661606920212716 5.501540814805452 8.816795057056536 0 0 0
19 1 5.434826681821127 7.64494298289397 3.9305185124995505 0 0 0
20 1 5.139023460858124 7.643157389908877 8.517194248929423 0 0 0
21 1 9.200763411782937 5.373644681791839 3.844495915555338 0 0 0
22 1 9.547860162057153 5.359388799212076 9.299349064067473 0 0 0
23 1 7.995513095460788 7.743150287126555 4.19101160303466 0 0 0
24 1 8.112139263492255 7.416849528815827 8.81456154521225 0 0 0
25 1 3.938120000490984 5.4110162419055765 4.000323107263178 0 0 0
26 1 3.9082594459082234 5.471762119274358 9.284297679663023 0 0 0
27 1 2.88231903824273 7.645308071527147 3.9934106478862463 0 0 0
28 1 2.485946002087617 7.621137533608741 8.664868038802462 0 0 0
29 1 9.532132844534488 0.8730147760457229 3.78798621635318 0 0 0
30 1 9.086921194588367 0.6573325718668058 8.936796045782314 0 0 0
31 1 7.731009626495302 3.1969789243379902 3.889985075179214 0 0 0
32 1 7.74282610984935 2.9505326208253586 8.959948353806066 0 0 0
33 1 5.499942243431059 1.6239443381313439 0.7449746907205489 0 0 0
34 1 5.529831601007381 1.5560575387800333 6.228521505890345 0 0 0
35 1 3.7864689178323183 3.6933191170303368 1.5419544497639246 0 0 0
36 1 4.06666763233388 3.9785766815999795 6.395868123508424 0 0 0
37 1 2.7074865484837423 6.17899585684258 1.6391719757882093 0 0 0
38 1 2.5527536671041644 5.870932019615914 6.169364124495083 0 0 0
39 1 1.2929015763531082 8.386454338972388 1.193462722164101 0 0 0
40 1 1.2410158476427051 8.364608044159539 5.850929459767779 0 0 0
41 1 0.14066528801402545 1.523451063317309 1.158157106850999 0 0 0
42 1 0.1589462303195104 1.3670698564401733 6.344980255726135 0 0 0
43 1 2.7545440800454126 1.3970557982516665 0.8866785181269415 0 0 0
44 1 2.6095080433717133 1.4881832904483792 6.063301760215409 0 0 0
45 1 1.3087966574766878 3.9437576598490605 0.9286306024056568 0 0 0
46 1 1.3288154623611867 3.660907254947671 6.225243510869821 0 0 0
47 1 0.03558701970263523 6.0300850779256026 1.4775877345649078 0 0 0
48 1 10.515155764262264 6.2173839756604155 6.127826165858767 -1 0 0
49 1 9.447386528320823 3.8214189670207572 1.5418721477318709 0 0 0
50 1 9.2162704275946 4.046052401703348 7.126421712129168 0 0 0
51 1 7.926869726581696 6.2318731157901 1.4574129378456862 0 0 0
52 1 7.959958187760363 6.029969124302361 6.028617279975867 0 0 0
53 1 6.645870223345996 8.56981551925908 1.1105395423247895 0 0 0
54 1 6.508461956619838 8.462071216215396 6.5125180648825545 0 0 0
55 1 9.26150847436054 8.292202685630775 1.1042826722202437 0 0 0
56 1 9.281404639956902 8.507267761775266 6.495351091189573 0 0 0
57 1 8.206548672361597 1.595896093885571 1.5940618785328646 0 0 0
58 1 7.9989061465697 1.7110503183921946 6.421230403021769 0 0 0
59 1 6.658764745923544 3.918545089997296 1.0816301832038657 0 0 0
60 1 6.649810397462169 3.884972715269094 6.782321797266772 0 0 0
61 1 5.212249140736439 6.15956767458148 1.4683180556346531 0 0 0
62 1 5.277950200549966 6.08487141273114 6.45671294945662 0 0 0
63 1 3.9858049611668855 8.386102169074618 0.8910501898054786 0 0 0
64 1 3.6796914601736295 8.24037508666838 6.199211000531683 0 0 0

Velocities

1 -4.447500155141251 -0.43092036546074053 -3.2393997718899357
2 1.582972453577979 2.6131949214802748 1.0121649598220757
3 -5.565527932091538 -4.498995177349072 0.0094181033810866
4 1.6206338328810803 -1.713473815687468 -0.5836494423248231
5 1.4667678358115843 -3.1476630992387884 2.106163550635041
6 -0.18233015765840563 -1.66000302139027 1.3396216750853975
7 -2.304111665960638 -4.558413667170311 4.59727876405271
8 -1.2393501906046533 6.432450063551619 3.368569298152471
9 3.1818365523403744 -2.7412775694958946 1.309549889157516
10 4.598661699222282 -4.751482595422345 -1.1065258245177083
11 -2.429352662262231 0.3791663900323181 3.1829451174598935
12 -2.445404793987303 2.423292555168105 -1.9792767468828487
13 2.8104857054845525 2.9810962266789396 -2.0129367533291957
14 -2.4156265466476996 4.086646952714151 -1.8287220632348526
15 0.1269298959021141 1.7995706587986409 -0.4554318352711183
16 -1.9122164623039337 -2.2722999436317215 0.4960340893444671
17 0.9892598772850563 2.79898425213288 2.8972267686409685
18 4.178371029381452 1.8447436073226984 2.1638068712581675
19 -2.2321679539912034 5.017602033020552 3.778565579289301
20 -3.7244443175243824 2.1932264594808943 0.6718112970900556
21 -4.046821696088257 -1.5921652460271376 0.6073807762825699
22 0.7058230180673677 3.699608913661838 2.0267725886336465
23 -4.470616229427067 -1.3779893989344512 0.5778720741345611
24 2.1324612258453675 0.2013290987790901 1.5150449630516867
25 -0.11076602630188703 -1.8900991742006992 0.7745249180326268
26 0.21319502467957765 -4.762395733260259 -3.208361344238603
27 1.6845349325913688 2.69082963262134 5.005204119551162
28 5.653045098533603 -1.2561465903324882 -0.1018408932844764
29 -1.6175141084720488 -0.9033869172628985 0.038374937504375005
30 -0.15695320923884837 -4.488488654977679 0.13061202516450807
31 -2.159393028227152 -1.7987422288375023 -1.6204165725353348
32 1.6888298303387923 -0.3600426628100971 0.9955937580013736
33 -1.061054347879856 0.2735458104831004 4.238153778347275
34 0.32236258920646244 -0.05961264140528277 1.4621626410689235
35 -2.8877401666403415 -1.867983790902287 -5.128051945139308
36 0.30934867310601316 -2.1534238745793384 -4.448204110527774
37 -0.9428480150814423 -1.485737966970633 -2.715913292819134
38 -4.4429899538174595 -5.416654150371631 -1.4121270889141515
39 -1.5729086880953005 -1.878161122739315 1.9587017034497949
40 1.910942527404968 2.977326844172028 1.1147271483443058
41 -0.5385162891102663 -1.5499407798731948 1.7373616205917102
42 -1.1353874179593422 -0.43388101219392233 -2.789729035366456
43 2.7311900896050676 -1.6965669133778718 2.513905542422005
44 3.7449925086522833 -0.3556554111996934 1.448458420814918
45 2.8236670595214326 2.586749955818318 -4.9286435358210445
46 4.56751327275303 2.636095386504672 1.6832437992967162
47 2.1571463845796175 -1.2162478086994426 -1.8901284561028326
48 -0.1733405381466934 -1.447731999042554 0.04098417958747147
49 -2.113993492868144 -0.749518165432533 0.7318687422513355
50 6.060257562102482 -3.7145581907152807 -1.6859590321171276
51 -5.227620433750924 -1.1530146270842383 -2.1413768026868962
52 -3.0158948734199598 0.23739457205675837 -0.3107466583793075
53 -2.159546094969342 3.530393481043307 -4.765770214236784
54 -0.03422326404284792 4.755704952548204 -1.9224867910040353
55 4.299938901591633 -0.590082615445646 -1.8475243417707619
56 4.360503374071033 3.4544440639339182 -2.5106454001840808
57 1.6673681442982362 0.0411798930187898 0.2543178467198767
58 -4.422226101582889 6.189607665623082 2.117422562505853
59 -3.0954477986305453 2.8382196162706865 -3.380354258159285
60 5.908116867200745 2.8997010239655587 0.861938755854813
61 4.169121803729529 0.6600805751381946 -4.284984739680887
62 0.4693770751354884 -1.8892816283960312 2.5097138852560303
63 -3.4937119821817166 2.1089466611776184 0.4717051690035019
64 -0.3581082507950419 -2.4890937072792076 0.5500050311786036
