ITEM: TIMESTEP
10000
ITEM: NUMBER OF ATOMS
64
ITEM: BOX BOUNDS xy xz yz pp pp pp
0.0000000000000000e+00 1.0600000000000822e+01 0.0000000000000000e+00
0.0000000000000000e+00 9.1798692801157618e+00 0.0000000000000000e+00
0.0000000000000000e+00 1.0140000000000001e+01 0.0000000000000000e+00
ITEM: ATOMS id type x y z
1 1 1.33004 5.28848 4.05122
2 1 1.25921 5.3764 8.88218
3 1 -0.0618375 7.7001 3.76185
4 1 0.0355999 7.66902 8.83031
5 1 6.66567 0.530278 3.81116
6 1 6.38882 0.712573 8.74915
7 1 5.36945 3.09291 3.47083
8 1 4.88485 3.25389 9.12107
9 1 1.59279 0.540879 3.69574
10 1 1.02812 0.824443 9.02531
11 1 0.243891 2.9728 3.78939
12 1 10.4416 3.13832 9.10085
13 1 4.32439 0.746332 3.73131
14 1 3.74568 0.620177 8.28855
15 1 2.69373 2.86969 3.69321
16 1 2.75323 3.31094 8.24669
17 1 6.45892 5.376 4.05144
18 1 6.66161 5.50154 8.8168
19 1 5.43483 7.64494 3.93052
20 1 5.13902 7.64316 8.51719
21 1 9.20076 5.37364 3.8445
22 1 9.54786 5.35939 9.29935
23 1 7.99551 7.74315 4.19101
24 1 8.11214 7.41685 8.81456
25 1 3.93812 5.41102 4.00032
26 1 3.90826 5.47176 9.2843
27 1 2.88232 7.64531 3.99341
28 1 2.48595 7.62114 8.66487
29 1 9.53213 0.873015 3.78799
30 1 9.08692 0.657333 8.9368
31 1 7.73101 3.19698 3.88999
32 1 7.74283 2.95053 8.95995
33 1 5.49994 1.62394 0.744975
34 1 5.52983 1.55606 6.22852
35 1 3.78647 3.69332 1.54195
36 1 4.06667 3.97858 6.39587
37 1 2.70749 6.179 1.63917
38 1 2.55275 5.87093 6.16936
39 1 1.2929 8.38645 1.19346
40 1 1.24102 8.36461 5.85093
41 1 0.140665 1.52345 1.15816
42 1 0.158946 1.36707 6.34498
43 1 2.75454 1.39706 0.886679
44 1 2.60951 1.48818 6.0633
45 1 1.3088 3.94376 0.928631
46 1 1.32882 3.66091 6.22524
47 1 0.035587 6.03009 1.47759
48 1 10.5152 6.21738 6.12783
49 1 9.44739 3.82142 1.54187
50 1 9.21627 4.04605 7.12642
51 1 7.92687 6.23187 1.45741
52 1 7.95996 6.02997 6.02862
53 1 6.64587 8.56982 1.11054
54 1 6.50846 8.46207 6.51252
55 1 9.26151 8.2922 1.10428
56 1 9.2814 8.50727 6.49535
57 1 8.20655 1.5959 1.59406
58 1 7.99891 1.71105 6.42123
59 1 6.65876 3.91855 1.08163
60 1 6.64981 3.88497 6.78232
61 1 5.21225 6.15957 1.46832
62 1 5.27795 6.08487 6.45671
63 1 3.9858 8.3861 0.89105
64 1 3.67969 8.24038 6.19921
