ITEM: TIMESTEP
10000
ITEM: NUMBER OF ATOMS
64
ITEM: BOX BOUNDS xy xz yz pp pp pp
0.0000000000000000e+00 1.0600000000000822e+01 0.0000000000000000e+00
0.0000000000000000e+00 9.1798692801157618e+00 0.0000000000000000e+00
0.0000000000000000e+00 1.0099999999999998e+01 0.0000000000000000e+00
ITEM: ATOMS id type x y z
1 1 1.14149 5.24201 3.70236
2 1 1.36445 5.46645 8.8978
3 1 10.5867 7.42399 3.74059
4 1 10.5898 7.61136 9.07162
5 1 6.69038 0.814496 3.70667
6 1 6.66094 0.744895 8.5211
7 1 5.40259 3.23901 4.13843
8 1 5.08176 3.37346 8.98646
9 1 1.36352 0.516064 4.05101
10 1 1.28091 0.682415 8.61865
11 1 0.278847 2.82445 3.85321
12 1 0.0202337 2.92761 8.88252
13 1 3.8676 0.786624 3.7317
14 1 3.92846 0.880461 8.97201
15 1 2.90487 3.18545 4.09294
16 1 2.59452 3.19322 8.67278
17 1 6.55632 5.37355 3.52757
18 1 6.67228 5.36999 8.60132
19 1 5.18456 7.79296 3.6364
20 1 5.51215 7.66025 8.75942
21 1 9.1517 5.17728 3.97055
22 1 9.48168 5.45156 8.37128
23 1 8.07524 7.69655 4.07393
24 1 7.9812 7.75005 8.69927
25 1 3.80798 5.59688 3.84906
26 1 3.87295 5.44624 9.25372
27 1 2.31575 7.43301 3.22222
28 1 2.72586 7.71483 8.6159
29 1 9.22238 1.01232 3.24378
30 1 9.24739 0.773842 9.16773
31 1 7.80741 3.15436 3.70759
32 1 7.86389 3.21707 8.99532
33 1 5.01001 1.52561 1.44002
34 1 5.42486 1.66189 6.2639
35 1 3.74065 4.061 1.67128
36 1 3.96356 3.83906 6.13927
37 1 2.31939 6.23868 1.07989
38 1 2.99127 6.04225 6.61996
39 1 1.11327 8.65588 1.28754
40 1 1.41478 8.43262 6.22723
41 1 0.1124 1.73084 0.904631
42 1 10.5163 1.35022 6.08233
43 1 2.56797 1.62765 1.13722
44 1 2.80944 1.4936 6.18608
45 1 1.03987 3.924 1.31654
46 1 1.23467 3.70428 6.23734
47 1 10.4965 6.0675 1.11864
48 1 0.376006 6.33876 6.18528
49 1 9.11584 3.63838 1.31551
50 1 9.32546 3.75854 6.32894
51 1 7.86513 5.93547 0.762721
52 1 8.01226 6.13453 6.48659
53 1 6.64967 8.42715 1.40858
54 1 6.91627 8.21441 6.50046
55 1 9.01524 8.14751 1.68116
56 1 9.52442 8.2027 6.82655
57 1 7.89086 1.59649 1.43623
58 1 8.14517 1.37955 6.57135
59 1 6.34629 3.58861 1.24134
60 1 6.81152 3.62385 6.60397
61 1 5.44976 6.20624 0.945728
62 1 5.50161 5.91109 5.97195
63 1 3.9629 8.24582 1.16851
64 1 4.30084 8.51889 6.71833
