LAMMPS data file via write_data, version 29 Sep 2021, timestep = 10000

64 atoms
1 atom types

0 10.640000000001363 xlo xhi
0 9.214510296267605 ylo yhi
0 9.94 zlo zhi
0 0 0 xy xz yz

Masses

1 65.38

Atoms # atomic

1 1 1.1623757388129974 5.242581527130992 3.677263182981484 0 0 0
2 1 1.4284907668344105 5.196531212986236 9.04970290054802 0 0 0
3 1 0.1756197597284588 7.4197842845105795 3.6516539720531482 0 0 0
4 1 10.51971050874031 7.488947846016254 8.702699125577455 -1 0 0
5 1 6.770644892937126 0.479880353453933 4.127990618847047 0 0 0
6 1 6.81628255974945 0.856706838846433 8.858136963159422 0 0 0
7 1 5.452983523416935 2.920567810355275 3.9762262080863473 0 0 0
8 1 5.156951912322427 2.9679383913974124 8.229070169803407 0 0 0
9 1 1.4793660550122882 0.7849254707391461 3.282318868386879 0 0 0
10 1 1.353209388104294 0.37914551984673434 8.580463294312016 0 0 0
11 1 10.311161299914273 2.9864100745544886 3.4726304684745575 -1 0 0
12 1 0.37983871554477333 3.145518936244466 8.609385385649494 0 0 0
13 1 4.232419545326339 0.910725829412851 3.1746872739343206 0 0 0
14 1 4.112795828533253 0.7291142701207639 8.431804146732103 0 0 0
15 1 2.744064423719546 3.1560432181839633 3.639317179150125 0 0 0
16 1 2.8468360273630764 3.1084655815658753 8.816347739835363 0 0 0
17 1 6.661614445177639 5.247581894457656 3.637030290037586 0 0 0
18 1 6.567973528742926 5.376698249486778 8.456681063705187 0 0 0
19 1 5.166839520035825 7.619622910009529 3.3664071829044016 0 0 0
20 1 5.279682270552166 7.721132808213841 8.764897728706256 0 0 0
21 1 9.133932998746975 5.178204283665933 4.0039408191685215 0 0 0
22 1 9.344444049209024 5.440239404861675 8.823586080716378 0 0 0
23 1 8.154770167170087 7.548546822935141 3.62097873706597 0 0 0
24 1 7.9827534357007925 7.662458429276593 9.340144414525657 0 0 0
25 1 3.9075151458256405 5.387369040221142 3.9867939778139037 0 0 0
26 1 3.8475205533622874 5.402047500142621 8.251549527940558 0 0 0
27 1 2.5068557789722843 7.822035362457454 3.6407917056381054 0 0 0
28 1 2.657306249937512 7.417159871917964 8.828507000122421 0 0 0
29 1 9.28605348210487 0.7811626165621218 4.254748159387599 0 0 0
30 1 9.369709443839222 0.8181022563357419 8.784140749411408 0 0 0
31 1 7.7589152803675585 2.846379805827054 3.8486114162203764 0 0 0
32 1 7.6242300451773986 3.3185743656482387 8.852914725122943 0 0 0
33 1 5.085489794301542 1.7063743916447485 0.9437723397020594 0 0 0
34 1 5.425861661916213 1.3935417464461481 6.233617544117047 0 0 0
35 1 3.875039893690151 4.088801148546782 1.1405890686704334 0 0 0
36 1 3.921024250856781 3.7297444376180993 6.091483223859006 0 0 0
37 1 2.7738744117953384 6.334689728300463 1.4300641596386234 0 0 0
38 1 2.639403803302983 6.22017282333932 6.041790902479518 0 0 0
39 1 1.1371496743151255 8.36573983126925 1.0298231380732898 0 0 0
40 1 1.2343377750440154 8.337166997443438 6.080932166373414 0 0 0
41 1 0.17617910216098942 1.6035198082253528 0.9155813360949477 0 0 0
42 1 0.1688007655749375 1.746797137618552 5.98629321895081 0 0 0
43 1 2.624575664846472 1.602533069235017 1.098103790515773 0 0 0
44 1 2.777323167571385 1.5872213580378423 6.478822243663038 0 0 0
45 1 1.3572073496703339 3.9697524425462416 1.222747832854339 0 0 0
46 1 1.4256043705345312 4.0199570771993365 5.964077960384369 0 0 0
47 1 10.22854428867295 6.1008201852745705 1.1162751145315324 -1 0 0
48 1 0.0027311167387452035 5.9779446686061934 6.307179118823981 0 0 0
49 1 9.343919693786026 3.787655694119914 0.9523276969166089 0 0 0
50 1 9.449342430410345 3.814883744344212 6.517743454503551 0 0 0
51 1 7.973268229407628 5.953545994656267 1.5473424940485128 0 0 0
52 1 8.103853457163238 6.19021540503832 6.759301234222071 0 0 0
53 1 6.724610462754965 8.461156905498122 1.6638856113328546 0 0 0
54 1 6.810923904830193 8.37819527994943 6.48950225586861 0 0 0
55 1 9.450598457860101 8.736086310572997 1.6890010220160823 0 0 0
56 1 9.491954370213032 8.598571868411629 6.555594536231414 0 0 0
57 1 7.860605506545841 1.709527050571988 0.9827128573318198 0 0 0
58 1 7.980451894851675 1.84382166968859 6.27276165245672 0 0 0
59 1 6.539329014582366 3.727058610571424 1.569632288372724 0 0 0
60 1 6.667384031508851 3.984821158801199 6.084706962182279 0 0 0
61 1 5.49432064292924 6.139576267626015 1.124164446543404 0 0 0
62 1 5.240202631507156 6.307611537876225 6.035383003339551 0 0 0
63 1 3.929494584967742 8.590852351836055 1.1947202301802196 0 0 0
64 1 3.7337262547488463 8.49536999226975 5.818646019702222 0 0 0

Velocities

1 5.238419690997177 -4.904026388149287 0.2938771672780918
2 -2.1047035764395763 5.093601177493758 -3.4607447997031717
3 1.7412777359179308 -2.0326995458760333 2.779222745866249
4 0.13963042373754028 0.9272218468753509 1.4204024652373255
5 -1.8505076719322109 -4.752572488493076 2.144581340567811
6 -1.9623896734651824 3.4711937880853707 -7.28610755009553
7 3.2685557773005502 0.5638929103558931 0.14733204811634976
8 -3.578480138242724 -1.344752833810668 -1.9870574858429906
9 2.6681210879648964 -1.3991114238631739 -0.04211894210734629
10 -5.328487234330527 -5.11161624453216 -0.5477998671068249
11 0.3202834293375716 4.498742513068058 -0.4544572662815694
12 1.8801167914497887 1.3684612902054318 -5.502164947549003
13 -0.35976106848109946 -1.0289831002506504 6.959550801270269
14 -2.292699522045604 -0.7204703851068062 5.197039036096426
15 0.6744288249971807 -4.371100835463288 -1.0395332671939517
16 -2.1041261242357505 1.7113923452801072 0.4762445409282966
17 2.256271100956601 -2.2886279646920404 -5.571402581740176
18 -0.3351150109367273 0.19432074376802788 2.673385438999591
19 -0.8957961382243332 2.38122748975152 4.232136792249223
20 -6.753071288130483 -1.9969995290231628 -6.2954706706334544
21 2.4379133609006787 -1.3250727152566666 3.837176167330767
22 -1.6631901984496928 3.047166643437797 -2.655765739486191
23 4.125547421756496 -3.152684105471372 0.3276953314733263
24 0.8413561290959838 -0.7848991569844029 0.5321005670130086
25 -2.182125544912972 -4.727006934672609 -6.958748164785238
26 3.245904237770231 -0.7294674337935787 1.4260590329818539
27 0.7594832853197376 4.79517763725329 4.815325374470494
28 3.080988623532238 -2.853616973671007 -1.2870186384457392
29 -3.4446318862320315 -0.24632395571366267 -4.548404898172563
30 -4.181818583601277 2.2555963541087554 -0.6965778365064949
31 -3.202765032056275 -1.5305652239454086 -2.9335426458633487
32 4.68630614812571 2.5443295152583234 1.8907820519624488
33 -2.185859738549194 3.464335924742862 -1.0653693411532767
34 8.591161743573517 1.1928239196878212 -0.2930757176030585
35 0.6845639099604885 1.8465901645453844 0.4800631445758423
36 4.424608439183538 -2.6156118354280107 -0.9661490225128259
37 0.3982263340134664 -1.3647443840677453 -0.27468910449873496
38 -4.716945877709827 4.244910621477308 -4.94738744465572
39 -1.5266189575947693 -1.149567606563052 -2.1675330436016846
40 -1.0697233380648636 -2.006353628072839 -3.2076837243036738
41 5.141826174205732 -1.6526340958591679 2.7471155119523583
42 -0.5360999559964882 -0.07675330348401836 1.2764454982480926
43 -1.6369014478390116 -3.858340344743093 -1.7643246990132726
44 -2.1074540625183973 4.869556198078674 1.6903817582612144
45 3.332567793003685 -0.7858860104601185 5.391789687605797
46 -3.2606900818621156 -2.176112598874642 2.177556481497836
47 2.8513181079841274 -0.25648846805475284 -0.5327494781418276
48 -5.770769248874262 -2.0997306489490972 -0.7325524552733669
49 2.1875077985542526 1.2119298510053789 -2.548983905328698
50 -2.9903424890912174 -0.3074014776206867 0.40220572742513216
51 -2.879996632330884 2.4691033727558525 4.215833098617259
52 0.7107775024073788 -3.664742335630089 4.055591770295236
53 1.9698289842096897 5.08037863899924 -4.554225950107807
54 0.9216752309294249 4.015314764410819 1.343191965661231
55 0.5608859274738853 5.733934298151193 -0.5650492028536767
56 0.018681212345910688 1.6029167741250254 1.8065340252632942
57 8.049103082704764 -1.8455959497044776 1.6349703780067821
58 -0.55836308617168 -2.9005711310298024 -2.2851466345900215
59 1.0400362800526104 -2.1083278069622264 4.201191658181179
60 -4.050673688634715 -1.7650477341079183 -0.3580015390134647
61 -4.235764189605473 2.917251979671975 6.277100472250666
62 0.5629375769462187 3.5694751255419543 1.6437545578787855
63 -2.27910567698101 -2.80580716812647 3.233296753053907
64 3.2346669968312876 3.669467878372478 -4.200096826451543
