ITEM: TIMESTEP
10000
ITEM: NUMBER OF ATOMS
64
ITEM: BOX BOUNDS xy xz yz pp pp pp
0.0000000000000000e+00 1.0640000000001363e+01 0.0000000000000000e+00
0.0000000000000000e+00 9.2145102962676049e+00 0.0000000000000000e+00
0.0000000000000000e+00 9.9399999999999995e+00 0.0000000000000000e+00
ITEM: ATOMS id type x y z
1 1 1.16238 5.24258 3.67726
2 1 1.42849 5.19653 9.0497
3 1 0.17562 7.41978 3.65165
4 1 10.5197 7.48895 8.7027
5 1 6.77064 0.47988 4.12799
6 1 6.81628 0.856707 8.85814
7 1 5.45298 2.92057 3.97623
8 1 5.15695 2.96794 8.22907
9 1 1.47937 0.784925 3.28232
10 1 1.35321 0.379146 8.58046
11 1 10.3112 2.98641 3.47263
12 1 0.379839 3.14552 8.60939
13 1 4.23242 0.910726 3.17469
14 1 4.1128 0.729114 8.4318
15 1 2.74406 3.15604 3.63932
16 1 2.84684 3.10847 8.81635
17 1 6.66161 5.24758 3.63703
18 1 6.56797 5.3767 8.45668
19 1 5.16684 7.61962 3.36641
20 1 5.27968 7.72113 8.7649
21 1 9.13393 5.1782 4.00394
22 1 9.34444 5.44024 8.82359
23 1 8.15477 7.54855 3.62098
24 1 7.98275 7.66246 9.34014
25 1 3.90752 5.38737 3.98679
26 1 3.84752 5.40205 8.25155
27 1 2.50686 7.82204 3.64079
28 1 2.65731 7.41716 8.82851
29 1 9.28605 0.781163 4.25475
30 1 9.36971 0.818102 8.78414
31 1 7.75892 2.84638 3.84861
32 1 7.62423 3.31857 8.85291
33 1 5.08549 1.70637 0.943772
34 1 5.42586 1.39354 6.23362
35 1 3.87504 4.0888 1.14059
36 1 3.92102 3.72974 6.09148
37 1 2.77387 6.33469 1.43006
38 1 2.6394 6.22017 6.04179
39 1 1.13715 8.36574 1.02982
40 1 1.23434 8.33717 6.08093
41 1 10.8162 1.60352 0.915581
42 1 0.168801 1.7468 5.98629
43 1 2.62458 1.60253 1.0981
44 1 2.77732 1.58722 6.47882
45 1 1.35721 3.96975 1.22275
46 1 1.4256 4.01996 5.96408
47 1 10.2285 6.10082 1.11628
48 1 0.00273112 5.97794 6.30718
49 1 9.34392 3.78766 0.952328
50 1 9.44934 3.81488 6.51774
51 1 7.97327 5.95355 1.54734
52 1 8.10385 6.19022 6.7593
53 1 6.72461 8.46116 1.66389
54 1 6.81092 8.3782 6.4895
55 1 9.4506 8.73609 1.689
56 1 9.49195 8.59857 6.55559
57 1 7.86061 1.70953 0.982713
58 1 7.98045 1.84382 6.27276
59 1 6.53933 3.72706 1.56963
60 1 6.66738 3.98482 6.08471
61 1 5.49432 6.13958 1.12416
62 1 5.2402 6.30761 6.03538
63 1 3.92949 8.59085 1.19472
64 1 3.73373 8.49537 5.81865
