LAMMPS (29 Sep 2021 - Update 1)
Reading data file ...
  triclinic box = (0.0000000 0.0000000 0.0000000) to (10.640000 9.2145103 9.9000000) with tilt (0.0000000 0.0000000 0.0000000)
  1 by 1 by 1 MPI processor grid
  reading atoms ...
  64 atoms
  read_data CPU = 0.001 seconds
Neighbor list info ...
  update every 1 steps, delay 0 steps, check yes
  max neighbors/atom: 2000, page size: 100000
  master list distance cutoff = 7
  ghost atom cutoff = 7
  binsize = 3.5, bins = 4 3 3
  1 neighbor lists, perpetual/occasional/extra = 1 0 0
  (1) pair mlip, perpetual
      attributes: full, newton on
      pair build: full/bin/atomonly
      stencil: full/bin/3d
      bin: standard
Setting up Verlet run ...
  Unit style    : metal
  Current step  : 0
  Time step     : 0.001
Per MPI rank memory allocation (min/avg/max) = 3.089 | 3.089 | 3.089 Mbytes
Step Time Temp Volume Press 
       0            0         1380    970.61966    4442.5788 
       1        0.001    1378.9468    970.61966    4480.4984 
       2        0.002    1375.7925    970.61966    4594.0605 
       3        0.003    1370.5518    970.61966    4782.7779 
       4        0.004    1363.2468    970.61966    5045.5338 
       5        0.005     1353.908    970.61966    5379.8374 
       6        0.006    1342.5754    970.61966    5778.5005 
       7        0.007    1329.2975    970.61966    6242.2688 
       8        0.008    1314.1296    970.61966    6769.0478 
       9        0.009    1297.1344    970.61966    7357.7663 
      10         0.01    1278.3819    970.61966    8006.7253 
Loop time of 0.214906 on 1 procs for 10 steps with 64 atoms

Performance: 4.020 ns/day, 5.970 hours/ns, 46.532 timesteps/s
96.4% CPU use with 1 MPI tasks x no OpenMP threads

MPI task timing breakdown:
Section |  min time  |  avg time  |  max time  |%varavg| %total
---------------------------------------------------------------
Pair    | 0.21479    | 0.21479    | 0.21479    |   0.0 | 99.95
Neigh   | 0          | 0          | 0          |   0.0 |  0.00
Comm    | 3.4277e-05 | 3.4277e-05 | 3.4277e-05 |   0.0 |  0.02
Output  | 4.2962e-05 | 4.2962e-05 | 4.2962e-05 |   0.0 |  0.02
Modify  | 2.7925e-05 | 2.7925e-05 | 2.7925e-05 |   0.0 |  0.01
Other   |            | 1.109e-05  |            |       |  0.01

Nlocal:        64.0000 ave          64 max          64 min
Histogram: 1 0 0 0 0 0 0 0 0 0
Nghost:        886.000 ave         886 max         886 min
Histogram: 1 0 0 0 0 0 0 0 0 0
Neighs:         0.00000 ave           0 max           0 min
Histogram: 1 0 0 0 0 0 0 0 0 0
FullNghs:      5504.00 ave        5504 max        5504 min
Histogram: 1 0 0 0 0 0 0 0 0 0

Total # of neighbors = 5504
Ave neighs/atom = 86.000000
Neighbor list builds = 0
Dangerous builds = 0
Setting up Verlet run ...
  Unit style    : metal
  Current step  : 10
  Time step     : 0.001
Per MPI rank memory allocation (min/avg/max) = 3.089 | 3.089 | 3.089 Mbytes
Step Time Temp Volume Press 
      10         0.01    1278.3819    970.61966    8006.7253 
      11        0.011    1257.9492    970.61966    8712.3008 
      12        0.012    1235.9213    970.61966    9470.4747 
      13        0.013    1212.3901    970.61966    10282.517 
      14        0.014    1187.4542    970.61966    11142.913 
      15        0.015    1161.2197    970.61966    12050.825 
      16        0.016    1133.7986    970.61966    13003.072 
      17        0.017    1105.3099    970.61966     13995.38 
      18        0.018    1075.8785    970.61966    15022.996 
      19        0.019    1045.6352    970.61966    16083.339 
      20         0.02    1014.7155    970.61966    17171.218 
      21        0.021    983.25979    970.61966    18282.178 
      22        0.022    951.41216    970.61966    19411.653 
      23        0.023     919.3197    970.61966    20554.616 
      24        0.024    887.13164    970.61966    21705.783 
      25        0.025    854.99835    970.61966    22859.717 
      26        0.026    823.07019    970.61966    24011.167 
      27        0.027    791.49638    970.61966    25154.355 
      28        0.028    760.42419    970.61966     26285.12 
      29        0.029    729.99791    970.61966    27398.851 
      30         0.03    700.35761    970.61966     28490.92 
      31        0.031     671.6377    970.61966    29556.238 
      32        0.032    643.96579    970.61966    30590.769 
      33        0.033    617.46165    970.61966    31590.324 
      34        0.034    592.23588    970.61966    32549.176 
      35        0.035    568.38891    970.61966    33464.485 
      36        0.036    546.01049    970.61966    34332.814 
      37        0.037    525.17886    970.61966    35151.979 
      38        0.038    505.95982    970.61966    35918.182 
      39        0.039    488.40615    970.61966    36629.538 
      40         0.04    472.55764    970.61966    37285.212 
      41        0.041    458.44069    970.61966    37883.331 
      42        0.042    446.06797    970.61966    38423.107 
      43        0.043    435.43873    970.61966    38904.945 
      44        0.044    426.53905    970.61966    39329.207 
      45        0.045    419.34202    970.61966    39698.154 
      46        0.046    413.80838    970.61966    40011.472 
      47        0.047    409.88729    970.61966    40269.727 
      48        0.048    407.51696    970.61966     40474.65 
      49        0.049     406.6255    970.61966    40627.873 
      50         0.05    407.13178    970.61966    40730.477 
      51        0.051    408.94656    970.61966    40785.436 
      52        0.052    411.97386    970.61966    40796.947 
      53        0.053    416.11197    970.61966    40768.503 
      54        0.054    421.25446    970.61966    40703.275 
      55        0.055     427.2914    970.61966    40603.481 
      56        0.056    434.11044    970.61966    40472.031 
      57        0.057    441.59794    970.61966    40311.518 
      58        0.058    449.64013    970.61966    40126.671 
      59        0.059    458.12429    970.61966    39921.825 
      60         0.06    466.93946    970.61966    39699.348 
      61        0.061    475.97729    970.61966     39463.33 
      62        0.062    485.13292    970.61966    39219.325 
      63        0.063    494.30588    970.61966    38970.301 
      64        0.064    503.40066    970.61966    38717.174 
      65        0.065    512.32725    970.61966    38464.621 
      66        0.066    521.00156    970.61966    38217.181 
      67        0.067    529.34588    970.61966     37976.98 
      68        0.068    537.28929    970.61966    37746.259 
      69        0.069    544.76792    970.61966    37526.888 
      70         0.07    551.72497    970.61966    37320.014 
      71        0.071    558.11074    970.61966    37128.407 
      72        0.072    563.88311    970.61966    36954.062 
      73        0.073    569.00738    970.61966    36798.568 
      74        0.074    573.45616    970.61966    36663.071 
      75        0.075    577.20935    970.61966    36548.546 
      76        0.076    580.25378    970.61966    36457.225 
      77        0.077    582.58315    970.61966    36389.086 
      78        0.078    584.19793    970.61966    36344.508 
      79        0.079    585.10486    970.61966    36322.599 
      80         0.08    585.31689    970.61966    36324.102 
      81        0.081    584.85296    970.61966    36349.376 
      82        0.082    583.73748    970.61966    36396.738 
      83        0.083     581.9999    970.61966    36465.503 
      84        0.084    579.67445    970.61966    36550.964 
      85        0.085    576.79937    970.61966    36655.424 
      86        0.086    573.41629    970.61966    36776.894 
      87        0.087    569.56983    970.61966    36912.176 
      88        0.088    565.30719    970.61966    37061.942 
      89        0.089    560.67758    970.61966    37225.112 
      90         0.09    555.73201    970.61966    37400.767 
      91        0.091    550.52271    970.61966    37587.189 
      92        0.092     545.1022    970.61966    37781.459 
      93        0.093    539.52278    970.61966    37979.657 
      94        0.094    533.83641    970.61966     38182.29 
      95        0.095    528.09449    970.61966    38388.622 
      96        0.096     522.3474    970.61966    38596.952 
      97        0.097    516.64397    970.61966    38805.565 
      98        0.098    511.03111    970.61966    39012.117 
      99        0.099    505.55359    970.61966    39215.872 
     100          0.1     500.2539    970.61966    39414.691 
Loop time of 1.91664 on 1 procs for 90 steps with 64 atoms

Performance: 4.057 ns/day, 5.916 hours/ns, 46.957 timesteps/s
100.0% CPU use with 1 MPI tasks x no OpenMP threads

MPI task timing breakdown:
Section |  min time  |  avg time  |  max time  |%varavg| %total
---------------------------------------------------------------
Pair    | 1.9156     | 1.9156     | 1.9156     |   0.0 | 99.94
Neigh   | 0.0002045  | 0.0002045  | 0.0002045  |   0.0 |  0.01
Comm    | 0.00030946 | 0.00030946 | 0.00030946 |   0.0 |  0.02
Output  | 0.00032772 | 0.00032772 | 0.00032772 |   0.0 |  0.02
Modify  | 0.00015721 | 0.00015721 | 0.00015721 |   0.0 |  0.01
Other   |            | 7.806e-05  |            |       |  0.00

Nlocal:        64.0000 ave          64 max          64 min
Histogram: 1 0 0 0 0 0 0 0 0 0
Nghost:        886.000 ave         886 max         886 min
Histogram: 1 0 0 0 0 0 0 0 0 0
Neighs:         0.00000 ave           0 max           0 min
Histogram: 1 0 0 0 0 0 0 0 0 0
FullNghs:      5988.00 ave        5988 max        5988 min
Histogram: 1 0 0 0 0 0 0 0 0 0

Total # of neighbors = 5988
Ave neighs/atom = 93.562500
Neighbor list builds = 1
Dangerous builds = 0
Setting up Verlet run ...
  Unit style    : metal
  Current step  : 100
  Time step     : 0.001
Per MPI rank memory allocation (min/avg/max) = 3.089 | 3.089 | 3.089 Mbytes
Step Time Temp Volume Press 
     100          0.1     500.2539    970.61966    39414.691 
     110         0.11    464.46907    970.61966    40821.227 
     120         0.12    473.30677    970.61966    40626.048 
     130         0.13    528.50433    970.61966    38665.075 
     140         0.14    613.35772    970.61966    35667.376 
     150         0.15    697.14459    970.61966    32771.504 
     160         0.16    749.55964    970.61966    30990.096 
     170         0.17    759.65168    970.61966    30710.535 
     180         0.18    740.74326    970.61966    31487.218 
     190         0.19    719.05075    970.61966    32487.793 
     200          0.2    712.25883    970.61966    33082.341 
     210         0.21    716.44265    970.61966    33279.151 
     220         0.22    720.42972    970.61966    33375.457 
     230         0.23    718.79495    970.61966    33660.447 
     240         0.24    706.43216    970.61966    34382.657 
     250         0.25    682.94108    970.61966    35393.796 
     260         0.26    665.09238    970.61966    36076.609 
     270         0.27    673.43052    970.61966    35793.822 
     280         0.28    703.78966    970.61966    34678.998 
     290         0.29     732.4967    970.61966    33622.453 
     300          0.3     740.8813    970.61966    33396.524 
     310         0.31    719.40083    970.61966    34306.179 
     320         0.32    668.00532    970.61966    36215.526 
     330         0.33    603.88533    970.61966    38438.203 
     340         0.34    559.35306    970.61966    39877.415 
     350         0.35    561.11946    970.61966    39798.867 
     360         0.36    611.52024    970.61966    38132.067 
     370         0.37    687.69336    970.61966    35699.147 
     380         0.38    755.05821    970.61966     33652.87 
     390         0.39    790.06342    970.61966    32617.859 
     400          0.4      798.288    970.61966    32239.561 
     410         0.41    805.30706    970.61966    31878.498 
     420         0.42    828.73809    970.61966    31001.104 
     430         0.43    863.77653    970.61966    29830.102 
     440         0.44    889.67873    970.61966    29007.884 
     450         0.45     884.9268    970.61966    29128.668 
     460         0.46    842.34423    970.61966    30462.365 
     470         0.47    773.46857    970.61966    32735.929 
     480         0.48    698.13271    970.61966    35197.312 
     490         0.49    633.24254    970.61966    37144.176 
     500          0.5    592.29461    970.61966    38184.789 
     510         0.51    579.38864    970.61966    38265.974 
     520         0.52    581.10035    970.61966    37796.645 
     530         0.53    577.85209    970.61966     37365.06 
     540         0.54    562.91552    970.61966    37187.653 
     550         0.55     546.3388    970.61966    37026.276 
     560         0.56    545.53843    970.61966    36350.338 
     570         0.57    569.39672    970.61966    34998.187 
     580         0.58    606.19357    970.61966    33378.278 
     590         0.59     637.9198    970.61966    31971.232 
     600          0.6    658.05938    970.61966    31048.253 
     610         0.61    665.46919    970.61966     30706.41 
     620         0.62     659.1094    970.61966     30959.93 
     630         0.63    643.81456    970.61966     31632.72 
     640         0.64    629.59053    970.61966    32320.196 
     650         0.65    627.96249    970.61966    32478.574 
     660         0.66    647.53073    970.61966     31913.01 
     670         0.67    684.71882    970.61966    30837.591 
     680         0.68     722.3485    970.61966    29837.382 
     690         0.69    741.75035    970.61966    29468.562 
     700          0.7    736.34057    970.61966    29914.717 
     710         0.71    714.58687    970.61966    30903.591 
     720         0.72    692.61013    970.61966     31946.86 
     730         0.73    683.23238    970.61966    32591.258 
     740         0.74    689.74818    970.61966     32701.93 
     750         0.75    705.72087    970.61966    32514.578 
     760         0.76     717.9428    970.61966    32538.169 
     770         0.77     717.6484    970.61966    33118.396 
     780         0.78    710.25888    970.61966    34121.752 
     790         0.79    707.28349    970.61966     35220.06 
     800          0.8    709.30364    970.61966    36402.545 
     810         0.81    705.19227    970.61966    37921.084 
     820         0.82     687.1394    970.61966    39815.701 
     830         0.83    660.02422    970.61966    41922.131 
     840         0.84    643.79252    970.61966    43518.811 
     850         0.85    666.45293    970.61966    43683.351 
     860         0.86    734.77449    970.61966    42226.312 
     870         0.87    815.28977    970.61966    40157.948 
     880         0.88    862.01639    970.61966    38946.595 
     890         0.89    856.57336    970.61966    39171.621 
     900          0.9    816.24697    970.61966    40450.462 
     910         0.91     778.7011    970.61966    41592.219 
     920         0.92    775.60426    970.61966    41540.096 
     930         0.93    807.78538    970.61966    40317.289 
     940         0.94    843.60422    970.61966    38909.744 
     950         0.95    846.13393    970.61966    38415.713 
     960         0.96    804.86403    970.61966    39205.744 
     970         0.97    742.48473    970.61966    40668.719 
     980         0.98     695.4406    970.61966    41647.906 
     990         0.99    690.47061    970.61966    41211.138 
    1000            1    728.27316    970.61966    39285.311 
Loop time of 19.4998 on 1 procs for 900 steps with 64 atoms

Performance: 3.988 ns/day, 6.018 hours/ns, 46.154 timesteps/s
100.0% CPU use with 1 MPI tasks x no OpenMP threads

MPI task timing breakdown:
Section |  min time  |  avg time  |  max time  |%varavg| %total
---------------------------------------------------------------
Pair    | 19.491     | 19.491     | 19.491     |   0.0 | 99.95
Neigh   | 0.0031483  | 0.0031483  | 0.0031483  |   0.0 |  0.02
Comm    | 0.003151   | 0.003151   | 0.003151   |   0.0 |  0.02
Output  | 0.00041166 | 0.00041166 | 0.00041166 |   0.0 |  0.00
Modify  | 0.001528   | 0.001528   | 0.001528   |   0.0 |  0.01
Other   |            | 0.0007116  |            |       |  0.00

Nlocal:        64.0000 ave          64 max          64 min
Histogram: 1 0 0 0 0 0 0 0 0 0
Nghost:        880.000 ave         880 max         880 min
Histogram: 1 0 0 0 0 0 0 0 0 0
Neighs:         0.00000 ave           0 max           0 min
Histogram: 1 0 0 0 0 0 0 0 0 0
FullNghs:      5946.00 ave        5946 max        5946 min
Histogram: 1 0 0 0 0 0 0 0 0 0

Total # of neighbors = 5946
Ave neighs/atom = 92.906250
Neighbor list builds = 15
Dangerous builds = 0
Setting up Verlet run ...
  Unit style    : metal
  Current step  : 1000
  Time step     : 0.001
Per MPI rank memory allocation (min/avg/max) = 3.089 | 3.089 | 3.089 Mbytes
Step Time Temp Volume Press 
    1000            1    728.27316    970.61966    39285.311 
    1100          1.1    617.39989    970.61966    36832.273 
    1200          1.2    682.90053    970.61966    33317.482 
    1300          1.3    713.36515    970.61966    32295.033 
    1400          1.4    655.80226    970.61966    31894.871 
    1500          1.5    594.82496    970.61966    28984.137 
    1600          1.6    587.25953    970.61966    29953.904 
    1700          1.7    711.67993    970.61966    32459.753 
    1800          1.8    714.85443    970.61966    35217.391 
    1900          1.9    696.92999    970.61966    34148.814 
    2000            2    714.74869    970.61966    31286.919 
    2100          2.1    637.95504    970.61966     26064.53 
    2200          2.2    495.24101    970.61966    30089.475 
    2300          2.3    653.13388    970.61966    32857.559 
    2400          2.4    684.23419    970.61966    35194.893 
    2500          2.5    692.66126    970.61966    38120.889 
    2600          2.6    774.16153    970.61966    37480.796 
    2700          2.7    717.91051    970.61966    36676.078 
    2800          2.8    689.48114    970.61966    29224.537 
    2900          2.9    749.54702    970.61966    27852.524 
    3000            3    681.97313    970.61966     33877.87 
    3100          3.1    814.28588    970.61966    36737.055 
    3200          3.2    930.39877    970.61966    39077.543 
    3300          3.3    678.96501    970.61966    39991.552 
    3400          3.4    738.32887    970.61966    33496.951 
    3500          3.5    725.66683    970.61966    31797.317 
    3600          3.6    675.41558    970.61966    31209.678 
    3700          3.7    707.65206    970.61966      27832.4 
    3800          3.8    644.46796    970.61966    30453.696 
    3900          3.9    676.09158    970.61966    34310.696 
    4000            4    669.57445    970.61966    42688.732 
    4100          4.1     794.1002    970.61966    39487.529 
    4200          4.2    687.51958    970.61966    38772.399 
    4300          4.3    647.60526    970.61966    31526.812 
    4400          4.4     679.9234    970.61966    29679.695 
    4500          4.5    719.02831    970.61966    30505.816 
    4600          4.6     708.9243    970.61966     38069.05 
    4700          4.7    797.28436    970.61966    34898.904 
    4800          4.8    683.00277    970.61966    37267.048 
    4900          4.9    681.12327    970.61966    34258.003 
    5000            5    621.57829    970.61966    32567.322 
    5100          5.1    588.45184    970.61966    26827.539 
    5200          5.2    622.70187    970.61966    26235.626 
    5300          5.3    625.00593    970.61966    34513.067 
    5400          5.4    695.88605    970.61966    33330.734 
    5500          5.5     650.7828    970.61966    34211.733 
    5600          5.6    667.79597    970.61966    34414.552 
    5700          5.7    644.29077    970.61966    39037.835 
    5800          5.8    693.34824    970.61966    40740.898 
    5900          5.9     749.1157    970.61966    35692.303 
    6000            6    731.31452    970.61966    28527.746 
    6100          6.1     630.4672    970.61966     30909.07 
    6200          6.2    693.72293    970.61966    31336.127 
    6300          6.3    691.04484    970.61966     37107.08 
    6400          6.4    772.27357    970.61966    38301.817 
    6500          6.5    994.77903    970.61966    40446.052 
    6600          6.6    737.74489    970.61966    42409.298 
    6700          6.7    779.14684    970.61966    34242.063 
    6800          6.8    719.96585    970.61966    33179.019 
    6900          6.9    641.93847    970.61966    31467.048 
    7000            7    602.53482    970.61966    30442.468 
    7100          7.1    738.85236    970.61966    31490.098 
    7200          7.2    836.38623    970.61966    34539.568 
    7300          7.3    779.50582    970.61966    35364.701 
    7400          7.4    699.74912    970.61966    33687.486 
    7500          7.5    719.01518    970.61966     29893.13 
    7600          7.6    554.10893    970.61966    30964.633 
    7700          7.7    574.52236    970.61966    25042.738 
    7800          7.8    646.00363    970.61966     27363.55 
    7900          7.9    734.49003    970.61966    31358.665 
    8000            8    754.93637    970.61966    30837.074 
    8100          8.1    681.07614    970.61966    32535.464 
    8200          8.2    751.89403    970.61966    33386.734 
    8300          8.3    824.47878    970.61966    37150.034 
    8400          8.4    743.25594    970.61966    40469.679 
    8500          8.5     669.5361    970.61966    36756.194 
    8600          8.6    713.88543    970.61966    32679.553 
    8700          8.7    766.29932    970.61966    30251.726 
    8800          8.8    539.57869    970.61966    37267.702 
    8900          8.9    725.49655    970.61966    32775.629 
    9000            9    754.76264    970.61966    44068.094 
    9100          9.1    727.28296    970.61966    43008.186 
    9200          9.2    791.65094    970.61966    31505.051 
    9300          9.3    667.29008    970.61966    33104.944 
    9400          9.4    709.78934    970.61966    31971.168 
    9500          9.5    709.39278    970.61966    34814.213 
    9600          9.6    842.82153    970.61966    31981.164 
    9700          9.7    738.05713    970.61966    32747.163 
    9800          9.8    637.15064    970.61966    30876.358 
    9900          9.9    602.11117    970.61966    31085.443 
   10000           10    706.31278    970.61966    32534.058 
Loop time of 198.438 on 1 procs for 9000 steps with 64 atoms

Performance: 3.919 ns/day, 6.125 hours/ns, 45.354 timesteps/s
100.0% CPU use with 1 MPI tasks x no OpenMP threads

MPI task timing breakdown:
Section |  min time  |  avg time  |  max time  |%varavg| %total
---------------------------------------------------------------
Pair    | 198.35     | 198.35     | 198.35     |   0.0 | 99.96
Neigh   | 0.033811   | 0.033811   | 0.033811   |   0.0 |  0.02
Comm    | 0.031328   | 0.031328   | 0.031328   |   0.0 |  0.02
Output  | 0.00058388 | 0.00058388 | 0.00058388 |   0.0 |  0.00
Modify  | 0.015487   | 0.015487   | 0.015487   |   0.0 |  0.01
Other   |            | 0.006993   |            |       |  0.00

Nlocal:        64.0000 ave          64 max          64 min
Histogram: 1 0 0 0 0 0 0 0 0 0
Nghost:        886.000 ave         886 max         886 min
Histogram: 1 0 0 0 0 0 0 0 0 0
Neighs:         0.00000 ave           0 max           0 min
Histogram: 1 0 0 0 0 0 0 0 0 0
FullNghs:      5966.00 ave        5966 max        5966 min
Histogram: 1 0 0 0 0 0 0 0 0 0

Total # of neighbors = 5966
Ave neighs/atom = 93.218750
Neighbor list builds = 160
Dangerous builds = 0
System init for write_data ...
Total wall time: 0:03:40
