LAMMPS data file via write_data, version 29 Sep 2021, timestep = 10000

64 atoms
1 atom types

0 10.640000000001363 xlo xhi
0 9.214510296267605 ylo yhi
0 9.9 zlo zhi
0 0 0 xy xz yz

Masses

1 65.38

Atoms # atomic

1 1 1.1028982332402226 5.233304532434133 3.5483215426245347 0 0 0
2 1 1.2444807861607867 5.425989664732693 8.551398534941278 0 0 0
3 1 0.061417533304283185 7.7016860571825045 3.5183662707477485 0 0 0
4 1 10.593203869089855 7.768137051672912 8.738967953841275 -1 0 0
5 1 6.659309536568738 1.1171940274262218 3.7205103756796545 0 0 0
6 1 6.618513555971953 0.9175278773299643 8.840772196895944 0 0 0
7 1 5.31945506970179 3.3402963343797816 3.408197117326346 0 0 0
8 1 5.140135403184127 2.9192751266440538 8.422295394057066 0 0 0
9 1 1.4387527088354932 0.8114501654517263 3.9493189674556337 0 0 0
10 1 1.274390633946701 0.7399105096430811 9.022529074512253 0 0 0
11 1 0.14958400188620258 3.0472849337237156 4.084406221852349 0 0 0
12 1 10.55716286055483 3.0543317380348007 8.532589127776262 -1 0 0
13 1 4.064788737205365 0.9555842009855485 4.002162898705643 0 0 0
14 1 4.079950457150817 0.7576609637517459 8.736780259361092 0 0 0
15 1 2.5933760706186435 3.1546889858909894 3.5477958728151058 0 0 0
16 1 2.492717038853525 2.960878945422596 8.672357270771576 0 0 0
17 1 6.48669660083587 5.581971190448987 3.8577708748282427 0 0 0
18 1 6.590723361304612 5.541358114526374 8.67334095018589 0 0 0
19 1 5.330273562578366 7.701153086007246 3.831421907724829 0 0 0
20 1 5.562189850690423 7.72347523014216 8.685760358780986 0 0 0
21 1 9.47830947405799 5.36980149245187 3.317541819245317 0 0 0
22 1 9.387259984452596 5.616679324110949 8.380111006593536 0 0 0
23 1 8.046912954759874 7.7779313450749505 3.5925368722456024 0 0 0
24 1 7.983320538169704 7.7779028047422205 8.883533949010955 0 0 0
25 1 3.8273116303817507 5.457899306320381 3.817263744667614 0 0 0
26 1 4.110578124365744 5.232987887382288 8.580544057060864 0 0 0
27 1 2.791393144446298 7.866249728467949 3.6010112052075267 0 0 0
28 1 2.7901174610129593 7.476239521435652 8.490098328824518 0 0 0
29 1 9.259338734241494 0.9741674558950314 4.2106915402974305 0 0 0
30 1 9.407408028677958 0.8929922012392121 9.043630146302533 0 0 0
31 1 8.020325481368467 3.2354806744033566 3.940349826823253 0 0 0
32 1 7.788295838040073 3.3130666015860832 8.600840803651604 0 0 0
33 1 5.29366453375274 1.512369957614601 1.1849900056015363 0 0 0
34 1 5.483662423802766 1.6392073293181588 5.971537107212343 0 0 0
35 1 3.882318987005715 4.068294734260279 0.9457966419300999 0 0 0
36 1 3.9831489308025803 3.7383999230834193 6.034961917667822 0 0 0
37 1 2.7161827080025955 6.201349852645394 0.988015214735457 0 0 0
38 1 2.5401365802164246 6.178876337770344 5.760222473617265 0 0 0
39 1 1.1604293180906464 8.016016685096602 1.0105246808284967 0 0 0
40 1 1.2726822653536667 8.142091200632164 6.304168161105417 0 0 0
41 1 0.12701808562078368 1.5015731733127944 1.898542710374405 0 0 0
42 1 0.16114452727628312 1.3540570559347267 6.277285662710293 0 0 0
43 1 2.764228689676288 1.4494128001409703 1.456428333913762 0 0 0
44 1 2.5499853424233887 1.3388388712708192 6.3562648016082886 0 0 0
45 1 1.2001617990702096 3.6470941250026043 1.1108731740785505 0 0 0
46 1 1.6241187133749138 3.9580062057889607 6.308937031496931 0 0 0
47 1 0.04948415838679302 5.969306234546743 0.879371224301971 0 0 0
48 1 0.1044897101459348 5.957738364556385 5.889528689262791 0 0 0
49 1 9.423597049026512 3.496355935123887 0.9078489361620216 0 0 0
50 1 9.541413022111247 3.7915461734717515 6.130947888720802 0 0 0
51 1 7.904471740209859 5.84467780932611 1.0010942542729906 0 0 0
52 1 7.81318390302621 6.221089956880401 6.024061158071698 0 0 0
53 1 6.676895442221477 8.527700248067314 1.4676501918542957 0 0 0
54 1 6.561486455130733 8.321119668983853 6.357765428854927 0 0 0
55 1 9.328861561017677 8.44383195418262 1.2037384622561975 0 0 0
56 1 9.225487850889605 8.486179167453246 6.191812521058249 0 0 0
57 1 8.038367849945566 1.4758940243834495 1.1315037783275976 0 0 0
58 1 7.923613780946293 1.473513123143359 6.655528883763737 0 0 0
59 1 6.358308428327293 3.8532187208106956 0.9307483751236058 0 0 0
60 1 6.605699633129174 3.8809336909338104 6.332729690817136 0 0 0
61 1 5.476879751642529 6.39016989880152 1.146765342447931 0 0 0
62 1 5.075617961346244 5.910320749893728 6.260205491513673 0 0 0
63 1 3.9775768907349445 8.473677513998977 1.4385542785297096 0 0 0
64 1 4.105090641674901 8.156910915194054 6.438381016964498 0 0 0

Velocities

1 4.450901100254155 -2.0304692923485828 -1.3794530464991115
2 -3.3638181509502125 1.0886716699875898 -7.359555268319024
3 1.6921730617593547 1.7900905190616134 1.695059150407513
4 -0.8335210331502101 1.9557556523778554 -2.6675579473175404
5 -4.467454853146159 -4.029123177627565 -1.9304107991345527
6 -0.21956998327461644 -1.1253177719394232 1.7658919130747603
7 -0.27776612175329946 -2.857911543729592 1.7058723570183436
8 -0.7937828986325902 10.162392631713422 -3.2260721656642453
9 -2.169753314059585 4.433908086936233 -1.0652245294929648
10 -0.5518453267150074 0.525887905572275 -2.6961729766819023
11 -3.437578682967503 1.1402937612857778 -4.435047183839743
12 -2.24007061630385 0.35071890171057263 -1.051113779377562
13 -3.7765930854208714 0.007397247976835877 -4.729145991575778
14 0.265520384242104 -1.9591272654262595 0.003945257896900023
15 -0.6833659810082136 2.329351697979194 -0.9451356081018418
16 -1.9433423000848993 -2.9410181738358703 0.3068659291940596
17 -0.9749882694469441 2.025094141598522 0.04469479550635237
18 -0.11387524280884447 -2.2346327651733917 4.711754683994465
19 1.5641997878322709 0.44180547586533214 1.5117091052078144
20 0.5089308806045059 -2.9025958976115644 1.24431573026503
21 -1.2970264906291629 5.147332463114837 3.4033965199632026
22 -1.7144718700006554 -0.16934442338422664 3.204717578085415
23 1.0840080455243244 -0.8096266534055083 -2.1714123947276307
24 -0.7845496676111563 1.0098958255400827 1.2288660297682923
25 -3.6815435710552142 -2.6870246393427766 -2.2045682519321748
26 -5.284586419520102 -0.9757671606155549 1.1883162174283828
27 1.9490984090074754 1.7286946284367475 -5.196510613493435
28 -3.7773591238095956 0.3802026120309423 1.0081229921792316
29 -2.418988678031357 2.2486208994310153 -3.864553095493828
30 5.24611415515544 -0.8115460227602348 -5.363992653905921
31 3.2133060654387453 -0.7789414170455061 4.866188029676355
32 0.8420641798728801 -5.080505423824292 -1.412087094737546
33 -1.8966096872943061 -2.1616561229940707 6.049395519816558
34 3.1365392282483335 1.9961691286047571 1.5777699196594586
35 2.8832086487801996 -0.37669244226595466 2.3657416634264847
36 -6.013661917654273 3.0363146800370693 4.346954449644269
37 4.066190945079193 1.2716374634462033 -4.236279460659962
38 -3.1474842848616813 1.3790697681191744 0.9351717384760106
39 4.850546763262938 -3.8510397885008127 -6.833444255300234
40 -1.109482495355323 5.979423985278249 0.8622033812197272
41 1.5840892577484462 -1.3827798136794698 -1.9534120114217455
42 -1.7435309031730883 0.17913901349425565 3.0425725946707995
43 -2.299252416673168 -0.9467626766042327 4.41584592242514
44 3.5425644246850387 -3.2967669062223393 -1.4840229484059397
45 1.9148823857417168 4.829211976609911 -2.0793237024876543
46 5.082393772695824 -4.8005400220158645 -1.1080859586048646
47 2.444262270817905 -2.257851962134645 3.7112665768560715
48 -4.227020883023894 2.9731731068524128 -2.7439972159934745
49 -0.7655562796796256 -2.4434967292607888 5.935585426287503
50 -0.5856541399468463 0.7323291332324717 1.156809883566344
51 -1.3120709146911431 -2.314145314861306 -0.5239626572692273
52 -1.3135078332353762 -5.444497226401712 -0.8634467676375077
53 -2.0706391990618016 -1.83612846560498 3.181553915828899
54 0.9024053177247628 -1.699201103840372 -3.152373203497433
55 1.387739612824099 2.95906945633518 4.321407985175036
56 0.7974065296830586 -1.4851624990785433 -5.265780482844867
57 -1.1485652588354842 1.8692164667101578 3.3683376004777315
58 1.5071041591986096 2.487462691840243 3.2813441885502868
59 6.771388239072574 -1.3710524538917945 1.8702861250775669
60 1.0613092987892503 -4.195477168705051 -2.8322524685799784
61 3.233023213590564 -2.80767983024603 1.2615448844668373
62 5.563792287131931 3.384126954069431 0.4631405697197715
63 -1.9502774375040968 0.9644094891331582 4.871846072498006
64 2.8440029066042722 3.2570147199967376 -0.13410017451115416
