 # Something
 108 atoms
 1 atom types
 0   12.825000000000005      xlo xhi 
 0   12.825000000000005      ylo yhi 
 0   12.825000000000005      zlo zhi 
   0.0000000000000000        0.0000000000000000        0.0000000000000000      xy xz yz
 Atoms
 
           1           1   6.4125000000000023        10.687500000000004        0.0000000000000000     
           2           1   4.2750000000000012        10.687500000000004        10.687500000000004     
           3           1   2.1375000000000015        10.687500000000004        8.5500000000000043     
           4           1   0.0000000000000000        10.687500000000004        6.4125000000000023     
           5           1   8.5500000000000043        8.5500000000000043        0.0000000000000000     
           6           1   6.4125000000000023        8.5500000000000043        10.687500000000004     
           7           1   4.2750000000000012        8.5500000000000043        8.5500000000000043     
           8           1   4.2750000000000012        6.4125000000000023        2.1375000000000015     
           9           1   10.687500000000004        4.2750000000000012        6.4125000000000023     
          10           1   8.5500000000000043        4.2750000000000012        4.2750000000000012     
          11           1   6.4125000000000023        4.2750000000000012        2.1375000000000015     
          12           1   10.687500000000004        2.1375000000000015        4.2750000000000012     
          13           1   8.5500000000000043        2.1375000000000015        2.1375000000000015     
          14           1   10.687500000000004        0.0000000000000000        2.1375000000000015     
          15           1   2.1375000000000015        6.4125000000000023        4.2750000000000012     
          16           1   0.0000000000000000        6.4125000000000023        2.1375000000000015     
          17           1   10.687500000000004        4.2750000000000012        10.687500000000004     
          18           1   8.5500000000000043        4.2750000000000012        8.5500000000000043     
          19           1   6.4125000000000023        4.2750000000000012        6.4125000000000023     
          20           1   4.2750000000000012        4.2750000000000012        4.2750000000000012     
          21           1   2.1375000000000015        4.2750000000000012        2.1375000000000015     
          22           1   4.2750000000000012        6.4125000000000023        6.4125000000000023     
          23           1   6.4125000000000023        6.4125000000000023        8.5500000000000043     
          24           1   8.5500000000000043        6.4125000000000023        10.687500000000004     
          25           1   10.687500000000004        6.4125000000000023        0.0000000000000000     
          26           1   0.0000000000000000        8.5500000000000043        4.2750000000000012     
          27           1   2.1375000000000015        8.5500000000000043        6.4125000000000023     
          28           1   10.687500000000004        8.5500000000000043        6.4125000000000023     
          29           1   8.5500000000000043        8.5500000000000043        4.2750000000000012     
          30           1   6.4125000000000023        8.5500000000000043        2.1375000000000015     
          31           1   10.687500000000004        6.4125000000000023        4.2750000000000012     
          32           1   8.5500000000000043        6.4125000000000023        2.1375000000000015     
          33           1   10.687500000000004        4.2750000000000012        2.1375000000000015     
          34           1   10.687500000000004        10.687500000000004        0.0000000000000000     
          35           1   10.687500000000004        10.687500000000004        4.2750000000000012     
          36           1   8.5500000000000043        10.687500000000004        2.1375000000000015     
          37           1   10.687500000000004        8.5500000000000043        2.1375000000000015     
          38           1   10.687500000000004        10.687500000000004        8.5500000000000043     
          39           1   8.5500000000000043        10.687500000000004        6.4125000000000023     
          40           1   6.4125000000000023        10.687500000000004        4.2750000000000012     
          41           1   4.2750000000000012        10.687500000000004        2.1375000000000015     
          42           1   8.5500000000000043        8.5500000000000043        8.5500000000000043     
          43           1   6.4125000000000023        8.5500000000000043        6.4125000000000023     
          44           1   4.2750000000000012        8.5500000000000043        4.2750000000000012     
          45           1   2.1375000000000015        8.5500000000000043        2.1375000000000015     
          46           1   10.687500000000004        6.4125000000000023        8.5500000000000043     
          47           1   8.5500000000000043        6.4125000000000023        6.4125000000000023     
          48           1   6.4125000000000023        6.4125000000000023        4.2750000000000012     
          49           1   10.687500000000004        8.5500000000000043        10.687500000000004     
          50           1   0.0000000000000000        10.687500000000004        2.1375000000000015     
          51           1   2.1375000000000015        10.687500000000004        4.2750000000000012     
          52           1   4.2750000000000012        10.687500000000004        6.4125000000000023     
          53           1   6.4125000000000023        10.687500000000004        8.5500000000000043     
          54           1   8.5500000000000043        10.687500000000004        10.687500000000004     
          55           1   0.0000000000000000        6.4125000000000023        10.687500000000004     
          56           1   4.2750000000000012        4.2750000000000012        0.0000000000000000     
          57           1   2.1375000000000015        4.2750000000000012        10.687500000000004     
          58           1   0.0000000000000000        4.2750000000000012        8.5500000000000043     
          59           1   6.4125000000000023        2.1375000000000015        0.0000000000000000     
          60           1   4.2750000000000012        2.1375000000000015        10.687500000000004     
          61           1   2.1375000000000015        2.1375000000000015        8.5500000000000043     
          62           1   10.687500000000004        0.0000000000000000        10.687500000000004     
          63           1   8.5500000000000043        0.0000000000000000        8.5500000000000043     
          64           1   6.4125000000000023        0.0000000000000000        6.4125000000000023     
          65           1   4.2750000000000012        0.0000000000000000        4.2750000000000012     
          66           1   2.1375000000000015        0.0000000000000000        2.1375000000000015     
          67           1   0.0000000000000000        8.5500000000000043        0.0000000000000000     
          68           1   2.1375000000000015        6.4125000000000023        0.0000000000000000     
          69           1   0.0000000000000000        4.2750000000000012        0.0000000000000000     
          70           1   2.1375000000000015        2.1375000000000015        0.0000000000000000     
          71           1   0.0000000000000000        2.1375000000000015        10.687500000000004     
          72           1   4.2750000000000012        0.0000000000000000        0.0000000000000000     
          73           1   2.1375000000000015        0.0000000000000000        10.687500000000004     
          74           1   0.0000000000000000        0.0000000000000000        8.5500000000000043     
          75           1   0.0000000000000000        0.0000000000000000        0.0000000000000000     
          76           1   0.0000000000000000        0.0000000000000000        4.2750000000000012     
          77           1   2.1375000000000015        0.0000000000000000        6.4125000000000023     
          78           1   4.2750000000000012        0.0000000000000000        8.5500000000000043     
          79           1   6.4125000000000023        0.0000000000000000        10.687500000000004     
          80           1   8.5500000000000043        0.0000000000000000        0.0000000000000000     
          81           1   0.0000000000000000        2.1375000000000015        6.4125000000000023     
          82           1   2.1375000000000015        10.687500000000004        0.0000000000000000     
          83           1   0.0000000000000000        10.687500000000004        10.687500000000004     
          84           1   4.2750000000000012        8.5500000000000043        0.0000000000000000     
          85           1   2.1375000000000015        8.5500000000000043        10.687500000000004     
          86           1   0.0000000000000000        8.5500000000000043        8.5500000000000043     
          87           1   6.4125000000000023        6.4125000000000023        0.0000000000000000     
          88           1   4.2750000000000012        6.4125000000000023        10.687500000000004     
          89           1   10.687500000000004        2.1375000000000015        8.5500000000000043     
          90           1   8.5500000000000043        2.1375000000000015        6.4125000000000023     
          91           1   6.4125000000000023        2.1375000000000015        4.2750000000000012     
          92           1   4.2750000000000012        2.1375000000000015        2.1375000000000015     
          93           1   10.687500000000004        0.0000000000000000        6.4125000000000023     
          94           1   8.5500000000000043        0.0000000000000000        4.2750000000000012     
          95           1   6.4125000000000023        0.0000000000000000        2.1375000000000015     
          96           1   0.0000000000000000        4.2750000000000012        4.2750000000000012     
          97           1   10.687500000000004        2.1375000000000015        0.0000000000000000     
          98           1   8.5500000000000043        2.1375000000000015        10.687500000000004     
          99           1   6.4125000000000023        2.1375000000000015        8.5500000000000043     
         100           1   4.2750000000000012        2.1375000000000015        6.4125000000000023     
         101           1   2.1375000000000015        2.1375000000000015        4.2750000000000012     
         102           1   0.0000000000000000        2.1375000000000015        2.1375000000000015     
         103           1   2.1375000000000015        4.2750000000000012        6.4125000000000023     
         104           1   4.2750000000000012        4.2750000000000012        8.5500000000000043     
         105           1   6.4125000000000023        4.2750000000000012        10.687500000000004     
         106           1   8.5500000000000043        4.2750000000000012        0.0000000000000000     
         107           1   0.0000000000000000        6.4125000000000023        6.4125000000000023     
         108           1   2.1375000000000015        6.4125000000000023        8.5500000000000043     
