LAMMPS (29 Sep 2021 - Update 1)
Reading data file ...
  triclinic box = (0.0000000 0.0000000 0.0000000) to (10.480000 9.0759462 10.420000) with tilt (0.0000000 0.0000000 0.0000000)
  1 by 1 by 1 MPI processor grid
  reading atoms ...
  64 atoms
  read_data CPU = 0.001 seconds
Neighbor list info ...
  update every 1 steps, delay 0 steps, check yes
  max neighbors/atom: 2000, page size: 100000
  master list distance cutoff = 7
  ghost atom cutoff = 7
  binsize = 3.5, bins = 3 3 3
  1 neighbor lists, perpetual/occasional/extra = 1 0 0
  (1) pair mlip, perpetual
      attributes: full, newton on
      pair build: full/bin/atomonly
      stencil: full/bin/3d
      bin: standard
Setting up Verlet run ...
  Unit style    : metal
  Current step  : 0
  Time step     : 0.001
Per MPI rank memory allocation (min/avg/max) = 3.089 | 3.089 | 3.089 Mbytes
Step Time Temp Volume Press 
       0            0         1380    991.10785    4184.5966 
       1        0.001    1378.9941    991.10785    4218.9996 
       2        0.002    1375.9765    991.10785     4322.223 
       3        0.003    1370.9519    991.10785     4493.913 
       4        0.004    1363.9345    991.10785    4730.1618 
       5        0.005    1354.9488    991.10785    5025.5594 
       6        0.006    1344.0298    991.10785    5372.9841 
       7        0.007    1331.2214    991.10785    5775.9897 
       8        0.008    1316.5745    991.10785    6238.2385 
       9        0.009     1300.148    991.10785    6758.9538 
      10         0.01    1282.0097    991.10785    7336.7199 
Loop time of 0.211763 on 1 procs for 10 steps with 64 atoms

Performance: 4.080 ns/day, 5.882 hours/ns, 47.223 timesteps/s
94.1% CPU use with 1 MPI tasks x no OpenMP threads

MPI task timing breakdown:
Section |  min time  |  avg time  |  max time  |%varavg| %total
---------------------------------------------------------------
Pair    | 0.21163    | 0.21163    | 0.21163    |   0.0 | 99.94
Neigh   | 0          | 0          | 0          |   0.0 |  0.00
Comm    | 4.1084e-05 | 4.1084e-05 | 4.1084e-05 |   0.0 |  0.02
Output  | 4.3763e-05 | 4.3763e-05 | 4.3763e-05 |   0.0 |  0.02
Modify  | 3.3875e-05 | 3.3875e-05 | 3.3875e-05 |   0.0 |  0.02
Other   |            | 1.237e-05  |            |       |  0.01

Nlocal:        64.0000 ave          64 max          64 min
Histogram: 1 0 0 0 0 0 0 0 0 0
Nghost:        886.000 ave         886 max         886 min
Histogram: 1 0 0 0 0 0 0 0 0 0
Neighs:         0.00000 ave           0 max           0 min
Histogram: 1 0 0 0 0 0 0 0 0 0
FullNghs:      6272.00 ave        6272 max        6272 min
Histogram: 1 0 0 0 0 0 0 0 0 0

Total # of neighbors = 6272
Ave neighs/atom = 98.000000
Neighbor list builds = 0
Dangerous builds = 0
Setting up Verlet run ...
  Unit style    : metal
  Current step  : 10
  Time step     : 0.001
Per MPI rank memory allocation (min/avg/max) = 3.089 | 3.089 | 3.089 Mbytes
Step Time Temp Volume Press 
      10         0.01    1282.0097    991.10785    7336.7199 
      11        0.011    1262.2359    991.10785    7971.0083 
      12        0.012    1240.9121    991.10785    8658.8347 
      13        0.013    1218.1323    991.10785    9395.2874 
      14        0.014    1193.9983    991.10785    10174.524 
      15        0.015    1168.6197    991.10785    10992.074 
      16        0.016    1142.1142    991.10785    11840.813 
      17        0.017    1114.6069    991.10785    12718.158 
      18        0.018     1086.232    991.10785    13623.032 
      19        0.019    1057.1309    991.10785    14548.633 
      20         0.02    1027.4503    991.10785    15485.182 
      21        0.021    997.34193    991.10785    16431.235 
      22        0.022    966.96325    991.10785    17385.359 
      23        0.023    936.47572    991.10785    18344.333 
      24        0.024    906.04259    991.10785    19299.773 
      25        0.025    875.82758    991.10785    20248.807 
      26        0.026    845.99369    991.10785    21185.927 
      27        0.027    816.70141    991.10785    22106.824 
      28        0.028    788.10717    991.10785    23006.513 
      29        0.029    760.36183    991.10785    23883.248 
      30         0.03    733.60895    991.10785    24732.317 
      31        0.031    707.98278    991.10785    25549.359 
      32        0.032    683.60677    991.10785    26331.137 
      33        0.033    660.59198    991.10785    27071.795 
      34        0.034    639.03594    991.10785    27770.562 
      35        0.035     619.0215    991.10785    28422.426 
      36        0.036    600.61594    991.10785    29028.199 
      37        0.037    583.87069    991.10785    29586.042 
      38        0.038    568.82043    991.10785    30093.125 
      39        0.039    555.48307    991.10785    30549.411 
      40         0.04    543.85999    991.10785    30954.691 
      41        0.041    533.93633    991.10785     31308.99 
      42        0.042    525.68164    991.10785    31614.004 
      43        0.043    519.05066    991.10785    31869.365 
      44        0.044    513.98441    991.10785    32076.314 
      45        0.045    510.41147    991.10785    32236.552 
      46        0.046     508.2493    991.10785    32351.701 
      47        0.047    507.40582    991.10785    32425.139 
      48        0.048      507.781    991.10785    32459.009 
      49        0.049    509.26823    991.10785    32453.761 
      50         0.05     511.7562    991.10785    32415.026 
      51        0.051    515.13074    991.10785    32346.242 
      52        0.052    519.27599    991.10785     32250.97 
      53        0.053    524.07566    991.10785    32129.718 
      54        0.054    529.41458    991.10785    31987.062 
      55        0.055    535.18006    991.10785     31826.13 
      56        0.056    541.26291    991.10785    31651.129 
      57        0.057    547.55835    991.10785    31465.282 
      58        0.058    553.96675    991.10785     31271.22 
      59        0.059    560.39432    991.10785    31072.254 
      60         0.06     566.7538    991.10785     30872.06 
      61        0.061    572.96481    991.10785     30674.08 
      62        0.062    578.95408    991.10785    30479.614 
      63        0.063    584.65577    991.10785    30291.453 
      64        0.064    590.01119    991.10785    30109.313 
      65        0.065    594.96905    991.10785    29936.335 
      66        0.066    599.48583    991.10785    29774.633 
      67        0.067    603.52524    991.10785    29625.745 
      68        0.068    607.05788    991.10785    29491.211 
      69        0.069    610.06128    991.10785    29372.121 
      70         0.07    612.51989    991.10785    29267.442 
      71        0.071    614.42415    991.10785    29180.251 
      72        0.072    615.76989    991.10785    29110.775 
      73        0.073    616.55776    991.10785     29056.37 
      74        0.074     616.7935    991.10785    29019.516 
      75        0.075    616.48821    991.10785    29000.268 
      76        0.076    615.65729    991.10785    28997.416 
      77        0.077    614.31991    991.10785     29011.31 
      78        0.078     612.4988    991.10785    29040.497 
      79        0.079    610.22014    991.10785    29085.044 
      80         0.08    607.51279    991.10785    29142.843 
      81        0.081    604.40795    991.10785    29214.461 
      82        0.082    600.93894    991.10785    29299.263 
      83        0.083    597.14087    991.10785    29395.498 
      84        0.084    593.05014    991.10785     29500.92 
      85        0.085    588.70419    991.10785    29616.721 
      86        0.086    584.14126    991.10785    29741.455 
      87        0.087    579.40001    991.10785    29874.122 
      88        0.088    574.51923    991.10785    30011.736 
      89        0.089    569.53746    991.10785    30152.821 
      90         0.09    564.49276    991.10785    30297.752 
      91        0.091     559.4229    991.10785    30444.613 
      92        0.092    554.36531    991.10785    30591.976 
      93        0.093    549.35683    991.10785    30738.009 
      94        0.094    544.43345    991.10785    30882.857 
      95        0.095    539.63001    991.10785    31026.369 
      96        0.096    534.98016    991.10785    31166.707 
      97        0.097     530.5162    991.10785    31302.096 
      98        0.098    526.26909    991.10785    31432.793 
      99        0.099     522.2684    991.10785    31557.686 
     100          0.1    518.54237    991.10785    31672.973 
Loop time of 1.84475 on 1 procs for 90 steps with 64 atoms

Performance: 4.215 ns/day, 5.694 hours/ns, 48.787 timesteps/s
100.0% CPU use with 1 MPI tasks x no OpenMP threads

MPI task timing breakdown:
Section |  min time  |  avg time  |  max time  |%varavg| %total
---------------------------------------------------------------
Pair    | 1.8435     | 1.8435     | 1.8435     |   0.0 | 99.93
Neigh   | 0.00023319 | 0.00023319 | 0.00023319 |   0.0 |  0.01
Comm    | 0.00032175 | 0.00032175 | 0.00032175 |   0.0 |  0.02
Output  | 0.00038825 | 0.00038825 | 0.00038825 |   0.0 |  0.02
Modify  | 0.0001856  | 0.0001856  | 0.0001856  |   0.0 |  0.01
Other   |            | 8.004e-05  |            |       |  0.00

Nlocal:        64.0000 ave          64 max          64 min
Histogram: 1 0 0 0 0 0 0 0 0 0
Nghost:        886.000 ave         886 max         886 min
Histogram: 1 0 0 0 0 0 0 0 0 0
Neighs:         0.00000 ave           0 max           0 min
Histogram: 1 0 0 0 0 0 0 0 0 0
FullNghs:      5972.00 ave        5972 max        5972 min
Histogram: 1 0 0 0 0 0 0 0 0 0

Total # of neighbors = 5972
Ave neighs/atom = 93.312500
Neighbor list builds = 1
Dangerous builds = 0
Setting up Verlet run ...
  Unit style    : metal
  Current step  : 100
  Time step     : 0.001
Per MPI rank memory allocation (min/avg/max) = 3.089 | 3.089 | 3.089 Mbytes
Step Time Temp Volume Press 
     100          0.1    518.54237    991.10785    31672.973 
     110         0.11    501.29698    991.10785    32227.838 
     120         0.12    527.17874    991.10785    31540.478 
     130         0.13    581.97916    991.10785    30088.935 
     140         0.14    625.82533    991.10785    29070.184 
     150         0.15    628.54402    991.10785    29371.858 
     160         0.16    593.82109    991.10785    30902.103 
     170         0.17    549.45292    991.10785    32788.655 
     180         0.18    528.95666    991.10785    34045.879 
     190         0.19    550.11094    991.10785    34055.974 
     200          0.2     601.6794    991.10785    33023.868 
     210         0.21    657.68999    991.10785     31729.15 
     220         0.22    699.17221    991.10785    30828.641 
     230         0.23    718.05104    991.10785    30625.832 
     240         0.24    713.82569    991.10785      31204.7 
     250         0.25    692.62904    991.10785    32349.317 
     260         0.26    671.71795    991.10785     33375.88 
     270         0.27    675.47304    991.10785    33546.708 
     280         0.28    713.67749    991.10785    32556.121 
     290         0.29    768.34068    991.10785     30901.94 
     300          0.3    806.86577    991.10785    29747.122 
     310         0.31    801.59288    991.10785    29962.016 
     320         0.32    748.98307    991.10785    31597.842 
     330         0.33     680.4064    991.10785    33736.083 
     340         0.34    639.70721    991.10785    35134.875 
     350         0.35    644.85602    991.10785    35174.862 
     360         0.36    679.59354    991.10785    34333.309 
     370         0.37    712.47856    991.10785    33554.764 
     380         0.38    721.50814    991.10785    33442.598 
     390         0.39    710.61897    991.10785     33760.55 
     400          0.4     706.3343    991.10785     33788.94 
     410         0.41    729.58006    991.10785    32940.924 
     420         0.42    767.96818    991.10785    31445.889 
     430         0.43     789.5128    991.10785    30169.488 
     440         0.44    781.75094    991.10785    29498.847 
     450         0.45    762.37381    991.10785      29180.1 
     460         0.46    751.19103    991.10785    28878.685 
     470         0.47    743.56793    991.10785    28623.598 
     480         0.48    720.32845    991.10785    28847.096 
     490         0.49    678.34216    991.10785    29491.204 
     500          0.5    639.87352    991.10785    29961.423 
     510         0.51    625.61812    991.10785    29718.109 
     520         0.52    628.38708    991.10785    28946.127 
     530         0.53    625.34767    991.10785    28385.286 
     540         0.54    606.06841    991.10785     28368.81 
     550         0.55    580.24822    991.10785    28620.553 
     560         0.56    564.79563    991.10785    28681.955 
     570         0.57    569.88163    991.10785     28265.98 
     580         0.58    594.11997    991.10785    27497.109 
     590         0.59     622.3893    991.10785    26839.955 
     600          0.6    630.57919    991.10785    27001.964 
     610         0.61      605.415    991.10785    28150.658 
     620         0.62     562.1328    991.10785    29731.492 
     630         0.63    535.12084    991.10785    30633.025 
     640         0.64    548.27877    991.10785    30158.812 
     650         0.65    597.02472    991.10785    28510.606 
     660         0.66    658.34575    991.10785    26456.253 
     670         0.67     709.2155    991.10785    24783.294 
     680         0.68    734.96207    991.10785     23949.22 
     690         0.69     734.1223    991.10785    23980.305 
     700          0.7     720.0503    991.10785    24533.537 
     710         0.71     705.9079    991.10785    25343.148 
     720         0.72    688.99748    991.10785    26288.434 
     730         0.73    663.01117    991.10785    27490.576 
     740         0.74    636.62341    991.10785    28623.782 
     750         0.75    624.81558    991.10785    29232.549 
     760         0.76    629.78511    991.10785    29230.088 
     770         0.77    640.38519    991.10785      29006.8 
     780         0.78    648.45711    991.10785    28879.085 
     790         0.79    655.68806    991.10785     28915.75 
     800          0.8    662.90025    991.10785    29095.029 
     810         0.81    664.64646    991.10785    29462.203 
     820         0.82    657.96449    991.10785    29992.367 
     830         0.83    650.85411    991.10785    30392.125 
     840         0.84    658.07139    991.10785    30261.377 
     850         0.85    686.01025    991.10785    29446.724 
     860         0.86    722.39583    991.10785    28306.863 
     870         0.87     744.4477    991.10785    27631.351 
     880         0.88    738.44602    991.10785    27813.701 
     890         0.89    709.77033    991.10785    28786.318 
     900          0.9    674.75031    991.10785    30130.187 
     910         0.91    647.71593    991.10785    31331.027 
     920         0.92    636.56758    991.10785    32073.759 
     930         0.93    641.91524    991.10785    32168.538 
     940         0.94    658.91551    991.10785    31714.239 
     950         0.95    682.89813    991.10785    31007.798 
     960         0.96     700.7215    991.10785    30591.351 
     970         0.97    697.80932    991.10785    30787.202 
     980         0.98    683.28672    991.10785    31298.771 
     990         0.99    677.98866    991.10785    31678.368 
    1000            1    685.57448    991.10785    31804.781 
Loop time of 18.4805 on 1 procs for 900 steps with 64 atoms

Performance: 4.208 ns/day, 5.704 hours/ns, 48.700 timesteps/s
100.0% CPU use with 1 MPI tasks x no OpenMP threads

MPI task timing breakdown:
Section |  min time  |  avg time  |  max time  |%varavg| %total
---------------------------------------------------------------
Pair    | 18.471     | 18.471     | 18.471     |   0.0 | 99.95
Neigh   | 0.0034366  | 0.0034366  | 0.0034366  |   0.0 |  0.02
Comm    | 0.0032517  | 0.0032517  | 0.0032517  |   0.0 |  0.02
Output  | 0.00050168 | 0.00050168 | 0.00050168 |   0.0 |  0.00
Modify  | 0.0018258  | 0.0018258  | 0.0018258  |   0.0 |  0.01
Other   |            | 0.0007481  |            |       |  0.00

Nlocal:        64.0000 ave          64 max          64 min
Histogram: 1 0 0 0 0 0 0 0 0 0
Nghost:        877.000 ave         877 max         877 min
Histogram: 1 0 0 0 0 0 0 0 0 0
Neighs:         0.00000 ave           0 max           0 min
Histogram: 1 0 0 0 0 0 0 0 0 0
FullNghs:      6000.00 ave        6000 max        6000 min
Histogram: 1 0 0 0 0 0 0 0 0 0

Total # of neighbors = 6000
Ave neighs/atom = 93.750000
Neighbor list builds = 15
Dangerous builds = 0
Setting up Verlet run ...
  Unit style    : metal
  Current step  : 1000
  Time step     : 0.001
Per MPI rank memory allocation (min/avg/max) = 3.089 | 3.089 | 3.089 Mbytes
Step Time Temp Volume Press 
    1000            1    685.57448    991.10785    31804.781 
    1100          1.1    715.34131    991.10785    37071.194 
    1200          1.2    839.95043    991.10785    39836.848 
    1300          1.3    694.46123    991.10785    40425.214 
    1400          1.4    681.08529    991.10785    32181.505 
    1500          1.5     664.0294    991.10785    30662.285 
    1600          1.6    675.84834    991.10785    31394.532 
    1700          1.7    753.38479    991.10785    33522.899 
    1800          1.8    694.69887    991.10785    35630.108 
    1900          1.9    615.62905    991.10785    31174.302 
    2000            2    627.48606    991.10785    27934.426 
    2100          2.1    676.72167    991.10785    24766.103 
    2200          2.2    592.48479    991.10785     29334.14 
    2300          2.3     655.0644    991.10785    29151.467 
    2400          2.4      691.277    991.10785    29392.162 
    2500          2.5    660.03802    991.10785    31390.381 
    2600          2.6    657.72683    991.10785    31511.908 
    2700          2.7    666.85652    991.10785    28704.179 
    2800          2.8    650.67595    991.10785    24836.238 
    2900          2.9    685.77734    991.10785    22952.975 
    3000            3    649.24316    991.10785    27167.676 
    3100          3.1    748.08565    991.10785    31250.142 
    3200          3.2    761.35599    991.10785    34442.104 
    3300          3.3     648.5898    991.10785    32937.204 
    3400          3.4    551.00388    991.10785    30448.689 
    3500          3.5    648.17167    991.10785    27536.777 
    3600          3.6    759.52119    991.10785    31300.371 
    3700          3.7    727.13308    991.10785    37353.966 
    3800          3.8    707.69205    991.10785    34826.953 
    3900          3.9    656.29217    991.10785    30899.764 
    4000            4    666.65025    991.10785    28675.545 
    4100          4.1     662.6356    991.10785    28973.133 
    4200          4.2    618.69706    991.10785    31326.745 
    4300          4.3     735.4146    991.10785     29065.08 
    4400          4.4    770.21521    991.10785      28245.9 
    4500          4.5    634.78575    991.10785    30384.275 
    4600          4.6    564.35712    991.10785    28492.507 
    4700          4.7    590.99907    991.10785    23084.876 
    4800          4.8    596.99186    991.10785    28997.352 
    4900          4.9    703.87763    991.10785    31966.952 
    5000            5     715.3397    991.10785    30875.419 
    5100          5.1    693.42275    991.10785    30428.034 
    5200          5.2    702.34264    991.10785    26800.652 
    5300          5.3    540.03113    991.10785    24872.961 
    5400          5.4    619.07241    991.10785    23614.761 
    5500          5.5    712.37071    991.10785    25547.393 
    5600          5.6    674.43478    991.10785    30489.398 
    5700          5.7    717.85731    991.10785    33178.796 
    5800          5.8    658.94271    991.10785    37070.653 
    5900          5.9    931.70991    991.10785    32323.457 
    6000            6    729.01627    991.10785    39511.151 
    6100          6.1    707.52269    991.10785     29858.61 
    6200          6.2    688.95956    991.10785    27432.042 
    6300          6.3    654.24603    991.10785    27689.619 
    6400          6.4    732.15443    991.10785     30512.93 
    6500          6.5    741.55099    991.10785    32361.775 
    6600          6.6     823.9366    991.10785    27706.863 
    6700          6.7    683.07203    991.10785     30059.34 
    6800          6.8    612.21262    991.10785    33455.899 
    6900          6.9    732.64219    991.10785    31062.369 
    7000            7    629.80208    991.10785    32378.277 
    7100          7.1    714.68798    991.10785    29456.534 
    7200          7.2    716.56024    991.10785    29532.329 
    7300          7.3    639.16293    991.10785    31877.324 
    7400          7.4    618.05017    991.10785    31581.895 
    7500          7.5    740.13152    991.10785    26664.395 
    7600          7.6    540.83019    991.10785     32223.08 
    7700          7.7    743.84304    991.10785    28937.799 
    7800          7.8    856.00736    991.10785    29583.517 
    7900          7.9    753.93438    991.10785    29949.701 
    8000            8     634.6134    991.10785    26508.593 
    8100          8.1    638.79795    991.10785    26874.118 
    8200          8.2    662.01318    991.10785    29119.319 
    8300          8.3    670.94357    991.10785    31675.608 
    8400          8.4    803.09506    991.10785    29225.265 
    8500          8.5    700.71174    991.10785    28443.539 
    8600          8.6    655.82271    991.10785    28056.831 
    8700          8.7    774.80591    991.10785    26065.205 
    8800          8.8    724.37584    991.10785    29133.127 
    8900          8.9    758.83921    991.10785    30136.045 
    9000            9    715.48032    991.10785    38380.298 
    9100          9.1    814.08696    991.10785    43884.273 
    9200          9.2     701.9331    991.10785    41088.766 
    9300          9.3    663.48482    991.10785    36542.655 
    9400          9.4    769.85345    991.10785    28922.267 
    9500          9.5    628.59993    991.10785    28054.826 
    9600          9.6    610.52738    991.10785    29651.472 
    9700          9.7    695.93685    991.10785    31452.427 
    9800          9.8    811.20224    991.10785    29655.285 
    9900          9.9     667.1351    991.10785    31494.036 
   10000           10    720.97352    991.10785    29204.504 
Loop time of 191.372 on 1 procs for 9000 steps with 64 atoms

Performance: 4.063 ns/day, 5.907 hours/ns, 47.029 timesteps/s
100.0% CPU use with 1 MPI tasks x no OpenMP threads

MPI task timing breakdown:
Section |  min time  |  avg time  |  max time  |%varavg| %total
---------------------------------------------------------------
Pair    | 191.28     | 191.28     | 191.28     |   0.0 | 99.95
Neigh   | 0.038706   | 0.038706   | 0.038706   |   0.0 |  0.02
Comm    | 0.033031   | 0.033031   | 0.033031   |   0.0 |  0.02
Output  | 0.00048289 | 0.00048289 | 0.00048289 |   0.0 |  0.00
Modify  | 0.01668    | 0.01668    | 0.01668    |   0.0 |  0.01
Other   |            | 0.006977   |            |       |  0.00

Nlocal:        64.0000 ave          64 max          64 min
Histogram: 1 0 0 0 0 0 0 0 0 0
Nghost:        876.000 ave         876 max         876 min
Histogram: 1 0 0 0 0 0 0 0 0 0
Neighs:         0.00000 ave           0 max           0 min
Histogram: 1 0 0 0 0 0 0 0 0 0
FullNghs:      6004.00 ave        6004 max        6004 min
Histogram: 1 0 0 0 0 0 0 0 0 0

Total # of neighbors = 6004
Ave neighs/atom = 93.812500
Neighbor list builds = 163
Dangerous builds = 0
System init for write_data ...
Total wall time: 0:03:32
