LAMMPS data file via write_data, version 29 Sep 2021, timestep = 10000

64 atoms
1 atom types

0 10.479999999999203 xlo xhi
0 9.075946231660229 ylo yhi
0 10.42 zlo zhi
0 0 0 xy xz yz

Masses

1 65.38

Atoms # atomic

1 1 1.1009462005728357 5.324606185971321 4.095732628183548 0 0 0
2 1 1.3436662370488042 5.179014148656757 9.009723911690271 0 0 0
3 1 10.264527972139867 7.503793174990536 3.9998654508615954 -1 0 0
4 1 10.462970663956858 7.579501697816487 8.926092332130251 -1 0 0
5 1 6.444329873081724 0.838415909786472 3.713604639945076 0 0 0
6 1 6.7186526731257565 0.7329384224752953 9.579425249186967 0 0 0
7 1 5.1009408164919305 3.1948483884584045 4.399034516053079 0 0 0
8 1 5.573557225924365 2.9010362319719127 9.181586278187606 0 0 0
9 1 1.1620590738713619 0.6358303011080123 3.785747965998227 0 0 0
10 1 1.6678293531430481 0.9208240783271993 9.067168740323444 0 0 0
11 1 10.209264165426614 2.99813157956636 4.0129609122801995 -1 0 0
12 1 0.14188231273729027 3.0514924850814924 9.785869248442882 0 0 0
13 1 3.5639315047418427 0.9153667943751859 4.051522482246961 0 0 0
14 1 4.074095855006305 0.6493495057954846 9.394328926047729 0 0 0
15 1 2.3863002743031902 3.015409642572562 3.6150508000359607 0 0 0
16 1 2.7387449246561624 2.9537743897929127 8.993403934015317 0 0 0
17 1 6.410818751482061 5.408245474137675 3.5152368768976663 0 0 0
18 1 6.431333792270043 5.231538413994951 9.231265371817976 0 0 0
19 1 4.864787754039773 7.517440728448457 4.2278394825924375 0 0 0
20 1 5.16094740185748 7.3511840452723956 9.299718076720815 0 0 0
21 1 9.054582552740293 5.24406397681399 3.378408096155713 0 0 0
22 1 9.161483437724819 5.264647063907673 8.748341277386126 0 0 0
23 1 7.539785147757161 7.7283410511781385 3.8584170941854614 0 0 0
24 1 7.888170511032093 7.463840968262613 9.292893867962166 0 0 0
25 1 3.8423074338362153 5.272194184423441 3.470053000486084 0 0 0
26 1 3.785114939393815 5.337048522643374 8.532698892399901 0 0 0
27 1 2.2922015762504713 7.666084690508548 3.7300429408873947 0 0 0
28 1 2.4867044960803812 7.636702277716147 8.936609046652919 0 0 0
29 1 9.051981872224683 0.8693030731037333 4.064623870773488 0 0 0
30 1 9.429106287442062 0.6926124115025403 9.769804045230904 0 0 0
31 1 7.602853426652198 3.143855878073391 4.060027604599329 0 0 0
32 1 8.170948855325777 2.94511489869042 8.807918454637049 0 0 0
33 1 5.417327783302191 1.6352646833548772 1.5877057218442832 0 0 0
34 1 5.2642601223566325 1.366979837902097 6.198427069002 0 0 0
35 1 4.255855595031574 3.593648275947666 0.6594810956572632 0 0 0
36 1 3.8989876481358876 3.6375734335878227 6.531131265885472 0 0 0
37 1 2.8970188780680655 6.060890294192008 0.7040246354209262 0 0 0
38 1 2.6636311045526537 6.123501135381399 6.204591866351338 0 0 0
39 1 1.3835244070008292 8.127181798902516 0.934765245501362 0 0 0
40 1 1.29012281275238 8.155880285592486 6.316534580169066 0 0 0
41 1 10.417961040655447 1.484384677917271 1.5945156250939667 -1 0 0
42 1 10.281602895308657 1.5385986856783809 7.0040720394384435 -1 0 0
43 1 2.6073451817358415 1.6065322630348624 1.2303340798219677 0 0 0
44 1 2.439760080424033 1.3629780569657317 6.614144032611714 0 0 0
45 1 1.6151426445993473 4.022719867386423 1.2598167076481828 0 0 0
46 1 1.2173060284057866 3.771596573228471 6.264456587492985 0 0 0
47 1 0.27959091807775294 5.873006446923897 1.0216560270233914 0 0 0
48 1 0.10097193935488127 6.113169646130264 6.877491490585888 0 0 0
49 1 9.340809666330934 4.127710705954725 1.433201368869342 0 0 0
50 1 9.037509625650465 3.9918225376981833 6.374920212172073 0 0 0
51 1 7.697847414765983 6.172568830332618 1.0497804258978691 0 0 0
52 1 8.05149781356331 6.271779374960104 5.842334717464424 0 0 0
53 1 6.719698434234161 8.553650239114488 1.5453633338530115 0 0 0
54 1 6.587463925088592 8.124004798404927 7.095727534461204 0 0 0
55 1 9.188152308043577 8.127418407749564 1.7290759741626411 0 0 0
56 1 9.340748076760514 8.459143244667935 6.578392151738993 0 0 0
57 1 8.010359469749842 1.6079502945983557 1.2213130454121337 0 0 0
58 1 7.794396515076707 1.2971499997334346 6.757915824885191 0 0 0
59 1 6.628719263836773 3.787504612613399 1.5294896652167194 0 0 0
60 1 6.681290500029586 3.6906746464895264 6.796426638983281 0 0 0
61 1 5.229637441367498 6.193057680943909 1.491032119545015 0 0 0
62 1 5.483361724743626 5.749272946936908 6.199370205477788 0 0 0
63 1 3.8240284266487268 8.489689640166723 1.659084010968248 0 0 0
64 1 4.067242951987262 8.146424895213189 6.598408686327613 0 0 0

Velocities

1 -1.590716821788397 1.6362042539533295 0.8000825703282761
2 1.5006102130170482 -0.15572342981718804 -4.211087785413608
3 -1.4411201388077248 -4.1925369443976965 1.3558999055574656
4 -3.2851320108840656 1.5486034259528085 -3.9011493996363398
5 -5.161221286401934 2.924833976530996 -1.7791499838931588
6 -5.738846561339576 4.395422650174991 1.7564191301052583
7 1.4138368582920688 0.2970859096234625 0.9286344053609668
8 -1.4912755604871453 0.3373298176845919 1.06260415231191
9 -0.7958076504625754 -4.799819825589756 -0.4180490244612529
10 4.974594810545364 1.1489421668337807 -0.5459456621364369
11 5.415646155542774 2.753896479757834 -1.0843542386769767
12 1.431215124713482 -2.4509807179448755 2.5271077318147763
13 0.054473161067767485 -1.7119200238978534 3.37174680117893
14 -5.016461967850899 0.7074384806474886 0.0033388987738910145
15 0.19699030817953483 -1.5942780610956002 -1.6868126203898781
16 -0.44258061719612524 -5.3861849260581955 0.9663547055825513
17 1.5211827941713012 -3.5678225329482425 1.9250678483777985
18 7.671972334992941 -2.18479835013261 0.0502847310493365
19 -3.306703251160022 2.26160206753105 -1.6270395246160592
20 1.6272051962358607 -2.743185061178584 -4.126172457869209
21 1.7500939214022482 -0.11815947024812427 1.5239328063820852
22 1.0640856248740587 0.3567580961540347 -0.11053238884197225
23 0.15717884986683986 6.82044772530078 0.7322206993099966
24 0.8396516187401315 4.938532008750122 -1.7919432626721705
25 1.5792378666823292 1.5469188627179737 -5.636216658073036
26 -0.8872796977146221 -2.7960998151675795 -1.944506512112053
27 -1.896053657469804 2.9041043421724693 -2.0990199252803743
28 1.5146248957314232 -4.655586399089325 2.8259904891166197
29 6.46255110294409 -3.1616962722416155 6.300943786681757
30 -5.338561297633503 1.0864977901574135 -4.521501910011486
31 6.086966918158255 -8.590547475752642 -0.35212252352100587
32 -4.351284060842116 -1.97296704181098 2.044312679249011
33 0.5551078644684068 4.093501359572871 -4.647529116902132
34 -1.865427886922846 -0.342116262829227 3.9025461114981517
35 -2.14895620213236 0.2944691545192662 4.05508283005081
36 4.535978489700698 1.9337127353997936 0.05764169972758665
37 -1.1245327081552177 2.431527005528108 3.3991529899035067
38 0.6512412136386226 -4.26274223545129 -4.172414870815185
39 3.3411790566123742 0.06645302511734545 6.523792249239198
40 0.4184321500397454 -7.635173259567492 -2.456074952801384
41 -0.6346149736259056 0.4591317688179764 -1.4659215288920164
42 1.337791420924648 2.5194491797772978 1.101766549332976
43 3.2563265317090937 0.5672218423930637 0.08270092933900829
44 4.629097714665952 -0.844965116083131 2.576180548660589
45 1.4539856993153029 4.0615223701002465 -5.287834017443253
46 1.7457049126624264 2.8295524132882877 -0.04211430933100148
47 1.345576927736311 -0.3655134098430524 -4.222394081749879
48 0.4797095437324284 3.269986665666997 3.6751158224741016
49 -4.77510629426381 -1.0093531482139892 2.197419333344124
50 -1.5318548114049206 1.6107538138992223 0.1296531614752623
51 -3.3796840838519695 -1.5489495218880556 -1.042680041584758
52 1.26162121809789 0.9745077144821002 2.638692726956941
53 0.7577021333283137 -2.5084739364721838 -0.5412139122961616
54 1.7154227252486423 -3.351814776364741 -1.744579370253408
55 -1.3683939921498693 -1.8374761562086057 0.4907761403012686
56 -1.8802651729900794 3.9425803260924774 1.0148795623127147
57 -0.6792174484489034 1.3126884458775274 -4.571427163622622
58 -2.8344950776144997 -1.516298588919851 3.289682737549664
59 -2.0937888696892366 5.613665463196502 -3.4331526952749294
60 -4.364799779174869 -3.794615537287139 2.837031456879843
61 1.6331414318268822 -4.73816705659118 -2.9838069090542945
62 0.8155871976729682 3.637991317845906 2.8567061527491826
63 -2.242410530556087 3.0959559151927603 2.5987779045879966
64 -3.5291315755192354 5.458676782380157 0.8442066000622749
