ITEM: TIMESTEP
10000
ITEM: NUMBER OF ATOMS
64
ITEM: BOX BOUNDS xy xz yz pp pp pp
0.0000000000000000e+00 1.0479999999999203e+01 0.0000000000000000e+00
0.0000000000000000e+00 9.0759462316602288e+00 0.0000000000000000e+00
0.0000000000000000e+00 1.0420000000000000e+01 0.0000000000000000e+00
ITEM: ATOMS id type x y z
1 1 1.10095 5.32461 4.09573
2 1 1.34367 5.17901 9.00972
3 1 10.2645 7.50379 3.99987
4 1 -0.0170293 7.5795 8.92609
5 1 6.44433 0.838416 3.7136
6 1 6.71865 0.732938 9.57943
7 1 5.10094 3.19485 4.39903
8 1 5.57356 2.90104 9.18159
9 1 1.16206 0.63583 3.78575
10 1 1.66783 0.920824 9.06717
11 1 10.2093 2.99813 4.01296
12 1 0.141882 3.05149 9.78587
13 1 3.56393 0.915367 4.05152
14 1 4.0741 0.64935 9.39433
15 1 2.3863 3.01541 3.61505
16 1 2.73874 2.95377 8.9934
17 1 6.41082 5.40825 3.51524
18 1 6.43133 5.23154 9.23127
19 1 4.86479 7.51744 4.22784
20 1 5.16095 7.35118 9.29972
21 1 9.05458 5.24406 3.37841
22 1 9.16148 5.26465 8.74834
23 1 7.53979 7.72834 3.85842
24 1 7.88817 7.46384 9.29289
25 1 3.84231 5.27219 3.47005
26 1 3.78511 5.33705 8.5327
27 1 2.2922 7.66608 3.73004
28 1 2.4867 7.6367 8.93661
29 1 9.05198 0.869303 4.06462
30 1 9.42911 0.692612 9.7698
31 1 7.60285 3.14386 4.06003
32 1 8.17095 2.94511 8.80792
33 1 5.41733 1.63526 1.58771
34 1 5.26426 1.36698 6.19843
35 1 4.25586 3.59365 0.659481
36 1 3.89899 3.63757 6.53113
37 1 2.89702 6.06089 0.704025
38 1 2.66363 6.1235 6.20459
39 1 1.38352 8.12718 0.934765
40 1 1.29012 8.15588 6.31653
41 1 -0.062039 1.48438 1.59452
42 1 10.2816 1.5386 7.00407
43 1 2.60735 1.60653 1.23033
44 1 2.43976 1.36298 6.61414
45 1 1.61514 4.02272 1.25982
46 1 1.21731 3.7716 6.26446
47 1 0.279591 5.87301 1.02166
48 1 0.100972 6.11317 6.87749
49 1 9.34081 4.12771 1.4332
50 1 9.03751 3.99182 6.37492
51 1 7.69785 6.17257 1.04978
52 1 8.0515 6.27178 5.84233
53 1 6.7197 8.55365 1.54536
54 1 6.58746 8.124 7.09573
55 1 9.18815 8.12742 1.72908
56 1 9.34075 8.45914 6.57839
57 1 8.01036 1.60795 1.22131
58 1 7.7944 1.29715 6.75792
59 1 6.62872 3.7875 1.52949
60 1 6.68129 3.69067 6.79643
61 1 5.22964 6.19306 1.49103
62 1 5.48336 5.74927 6.19937
63 1 3.82403 8.48969 1.65908
64 1 4.06724 8.14642 6.59841
