 # Something
 64 atoms
 1 atom types
 0   10.479999999999203      xlo xhi 
 0   9.0759462316602288      ylo yhi 
 0   10.420000000000000      zlo zhi 
   0.0000000000000000        0.0000000000000000        0.0000000000000000      xy xz yz
 Atoms
 
           1           1   1.3099999999999004        5.2943019684684671        3.9074999999999998     
           2           1   1.3099999999999004        5.2943019684684671        9.1174999999999997     
           3           1   0.0000000000000000        7.5632885263835243        3.9074999999999998     
           4           1   0.0000000000000000        7.5632885263835243        9.1174999999999997     
           5           1   6.5499999999995016       0.75632885263835237        3.9074999999999998     
           6           1   6.5499999999995016       0.75632885263835237        9.1174999999999997     
           7           1   5.2399999999996014        3.0253154105534095        3.9074999999999998     
           8           1   5.2399999999996014        3.0253154105534095        9.1174999999999997     
           9           1   1.3099999999999004       0.75632885263835237        3.9074999999999998     
          10           1   1.3099999999999004       0.75632885263835237        9.1174999999999997     
          11           1   0.0000000000000000        3.0253154105534095        3.9074999999999998     
          12           1   0.0000000000000000        3.0253154105534095        9.1174999999999997     
          13           1   3.9299999999997013       0.75632885263835237        3.9074999999999998     
          14           1   3.9299999999997013       0.75632885263835237        9.1174999999999997     
          15           1   2.6199999999998007        3.0253154105534095        3.9074999999999998     
          16           1   2.6199999999998007        3.0253154105534095        9.1174999999999997     
          17           1   6.5499999999995016        5.2943019684684671        3.9074999999999998     
          18           1   6.5499999999995016        5.2943019684684671        9.1174999999999997     
          19           1   5.2399999999996014        7.5632885263835243        3.9074999999999998     
          20           1   5.2399999999996014        7.5632885263835243        9.1174999999999997     
          21           1   9.1699999999993018        5.2943019684684671        3.9074999999999998     
          22           1   9.1699999999993018        5.2943019684684671        9.1174999999999997     
          23           1   7.8599999999994026        7.5632885263835243        3.9074999999999998     
          24           1   7.8599999999994026        7.5632885263835243        9.1174999999999997     
          25           1   3.9299999999997013        5.2943019684684671        3.9074999999999998     
          26           1   3.9299999999997013        5.2943019684684671        9.1174999999999997     
          27           1   2.6199999999998007        7.5632885263835243        3.9074999999999998     
          28           1   2.6199999999998007        7.5632885263835243        9.1174999999999997     
          29           1   9.1699999999993018       0.75632885263835237        3.9074999999999998     
          30           1   9.1699999999993018       0.75632885263835237        9.1174999999999997     
          31           1   7.8599999999994026        3.0253154105534095        3.9074999999999998     
          32           1   7.8599999999994026        3.0253154105534095        9.1174999999999997     
          33           1   5.2399999999996014        1.5126577052767052        1.3025000000000000     
          34           1   5.2399999999996014        1.5126577052767052        6.5125000000000002     
          35           1   3.9299999999997013        3.7816442631917622        1.3025000000000000     
          36           1   3.9299999999997013        3.7816442631917622        6.5125000000000002     
          37           1   2.6199999999998007        6.0506308211068198        1.3025000000000000     
          38           1   2.6199999999998007        6.0506308211068198        6.5125000000000002     
          39           1   1.3099999999999004        8.3196173790218779        1.3025000000000000     
          40           1   1.3099999999999004        8.3196173790218779        6.5125000000000002     
          41           1   0.0000000000000000        1.5126577052767052        1.3025000000000000     
          42           1   0.0000000000000000        1.5126577052767052        6.5125000000000002     
          43           1   2.6199999999998007        1.5126577052767052        1.3025000000000000     
          44           1   2.6199999999998007        1.5126577052767052        6.5125000000000002     
          45           1   1.3099999999999004        3.7816442631917622        1.3025000000000000     
          46           1   1.3099999999999004        3.7816442631917622        6.5125000000000002     
          47           1   0.0000000000000000        6.0506308211068198        1.3025000000000000     
          48           1   0.0000000000000000        6.0506308211068198        6.5125000000000002     
          49           1   9.1699999999993018        3.7816442631917622        1.3025000000000000     
          50           1   9.1699999999993018        3.7816442631917622        6.5125000000000002     
          51           1   7.8599999999994026        6.0506308211068198        1.3025000000000000     
          52           1   7.8599999999994026        6.0506308211068198        6.5125000000000002     
          53           1   6.5499999999995016        8.3196173790218779        1.3025000000000000     
          54           1   6.5499999999995016        8.3196173790218779        6.5125000000000002     
          55           1   9.1699999999993018        8.3196173790218779        1.3025000000000000     
          56           1   9.1699999999993018        8.3196173790218779        6.5125000000000002     
          57           1   7.8599999999994026        1.5126577052767052        1.3025000000000000     
          58           1   7.8599999999994026        1.5126577052767052        6.5125000000000002     
          59           1   6.5499999999995016        3.7816442631917622        1.3025000000000000     
          60           1   6.5499999999995016        3.7816442631917622        6.5125000000000002     
          61           1   5.2399999999996014        6.0506308211068198        1.3025000000000000     
          62           1   5.2399999999996014        6.0506308211068198        6.5125000000000002     
          63           1   3.9299999999997013        8.3196173790218779        1.3025000000000000     
          64           1   3.9299999999997013        8.3196173790218779        6.5125000000000002     
