LAMMPS (29 Sep 2021 - Update 1)
Reading data file ...
  triclinic box = (0.0000000 0.0000000 0.0000000) to (10.520000 9.1105872 10.020000) with tilt (0.0000000 0.0000000 0.0000000)
  1 by 1 by 1 MPI processor grid
  reading atoms ...
  64 atoms
  read_data CPU = 0.001 seconds
Neighbor list info ...
  update every 1 steps, delay 0 steps, check yes
  max neighbors/atom: 2000, page size: 100000
  master list distance cutoff = 7
  ghost atom cutoff = 7
  binsize = 3.5, bins = 4 3 3
  1 neighbor lists, perpetual/occasional/extra = 1 0 0
  (1) pair mlip, perpetual
      attributes: full, newton on
      pair build: full/bin/atomonly
      stencil: full/bin/3d
      bin: standard
Setting up Verlet run ...
  Unit style    : metal
  Current step  : 0
  Time step     : 0.001
Per MPI rank memory allocation (min/avg/max) = 3.089 | 3.089 | 3.089 Mbytes
Step Time Temp Volume Press 
       0            0         1380    960.35065    18216.595 
       1        0.001    1378.9749    960.35065    18251.008 
       2        0.002    1375.9049    960.35065    18351.289 
       3        0.003    1370.8069    960.35065    18508.888 
       4        0.004    1363.7074    960.35065    18723.731 
       5        0.005    1354.6406    960.35065    18997.051 
       6        0.006    1343.6482    960.35065    19330.544 
       7        0.007      1330.78    960.35065    19725.453 
       8        0.008    1316.0938    960.35065    20181.112 
       9        0.009    1299.6553    960.35065     20696.06 
      10         0.01    1281.5385    960.35065    21268.478 
Loop time of 0.213622 on 1 procs for 10 steps with 64 atoms

Performance: 4.045 ns/day, 5.934 hours/ns, 46.812 timesteps/s
98.4% CPU use with 1 MPI tasks x no OpenMP threads

MPI task timing breakdown:
Section |  min time  |  avg time  |  max time  |%varavg| %total
---------------------------------------------------------------
Pair    | 0.21352    | 0.21352    | 0.21352    |   0.0 | 99.95
Neigh   | 0          | 0          | 0          |   0.0 |  0.00
Comm    | 3.3111e-05 | 3.3111e-05 | 3.3111e-05 |   0.0 |  0.02
Output  | 3.7772e-05 | 3.7772e-05 | 3.7772e-05 |   0.0 |  0.02
Modify  | 2.3847e-05 | 2.3847e-05 | 2.3847e-05 |   0.0 |  0.01
Other   |            | 1.039e-05  |            |       |  0.00

Nlocal:        64.0000 ave          64 max          64 min
Histogram: 1 0 0 0 0 0 0 0 0 0
Nghost:        886.000 ave         886 max         886 min
Histogram: 1 0 0 0 0 0 0 0 0 0
Neighs:         0.00000 ave           0 max           0 min
Histogram: 1 0 0 0 0 0 0 0 0 0
FullNghs:      6272.00 ave        6272 max        6272 min
Histogram: 1 0 0 0 0 0 0 0 0 0

Total # of neighbors = 6272
Ave neighs/atom = 98.000000
Neighbor list builds = 0
Dangerous builds = 0
Setting up Verlet run ...
  Unit style    : metal
  Current step  : 10
  Time step     : 0.001
Per MPI rank memory allocation (min/avg/max) = 3.089 | 3.089 | 3.089 Mbytes
Step Time Temp Volume Press 
      10         0.01    1281.5385    960.35065    21268.478 
      11        0.011    1261.8255    960.35065    21895.907 
      12        0.012     1240.606    960.35065    22575.705 
      13        0.013    1217.9774    960.35065    23305.202 
      14        0.014    1194.0445    960.35065    24081.192 
      15        0.015     1168.919    960.35065    24900.137 
      16        0.016    1142.7191    960.35065     25758.42 
      17        0.017    1115.5693    960.35065    26652.223 
      18        0.018    1087.5994    960.35065    27577.465 
      19        0.019    1058.9442    960.35065     28529.81 
      20         0.02    1029.7426    960.35065    29504.878 
      21        0.021    1000.1365    960.35065    30497.226 
      22        0.022     970.2699    960.35065    31502.362 
      23        0.023    940.28865    960.35065    32515.996 
      24        0.024    910.33904    960.35065    33533.437 
      25        0.025    880.56675    960.35065    34549.842 
      26        0.026    851.11532    960.35065    35559.179 
      27        0.027    822.12503    960.35065    36556.829 
      28        0.028    793.73235    960.35065    37539.661 
      29        0.029    766.06868    960.35065    38503.161 
      30         0.03    739.25885    960.35065    39442.883 
      31        0.031    713.42005    960.35065    40355.096 
      32        0.032    688.66067    960.35065    41235.226 
      33        0.033    665.07935    960.35065    42080.017 
      34        0.034    642.76434    960.35065    42886.646 
      35        0.035    621.79287    960.35065    43653.481 
      36        0.036    602.23034    960.35065    44376.989 
      37        0.037    584.12962    960.35065    45054.293 
      38        0.038    567.53074    960.35065    45682.751 
      39        0.039    552.46116    960.35065    46263.041 
      40         0.04    538.93589    960.35065    46793.855 
      41        0.041    526.95732    960.35065    47274.777 
      42        0.042    516.51552    960.35065    47706.148 
      43        0.043    507.58856    960.35065    48087.684 
      44        0.044    500.14331    960.35065    48420.096 
      45        0.045    494.13624    960.35065    48704.593 
      46        0.046    489.51418    960.35065    48942.827 
      47        0.047    486.21501    960.35065    49134.949 
      48        0.048    484.16856    960.35065    49282.868 
      49        0.049    483.29792    960.35065    49390.101 
      50         0.05     483.5204    960.35065     49459.45 
      51        0.051    484.74838    960.35065    49491.219 
      52        0.052    486.89055    960.35065    49488.668 
      53        0.053    489.85296    960.35065    49455.436 
      54        0.054    493.53966    960.35065    49393.001 
      55        0.055    497.85374    960.35065      49304.3 
      56        0.056    502.69854    960.35065    49194.174 
      57        0.057    507.97851    960.35065    49065.902 
      58        0.058    513.59947    960.35065    48919.718 
      59        0.059    519.46944    960.35065    48760.473 
      60         0.06    525.49949    960.35065    48590.977 
      61        0.061    531.60411    960.35065    48413.909 
      62        0.062    537.70197    960.35065    48231.887 
      63        0.063    543.71623    960.35065     48048.74 
      64        0.064    549.57478    960.35065    47865.934 
      65        0.065     555.2105    960.35065    47687.074 
      66        0.066    560.56107    960.35065    47515.238 
      67        0.067    565.56956    960.35065    47350.033 
      68        0.068    570.18483    960.35065    47191.343 
      69        0.069     574.3616    960.35065    47044.653 
      70         0.07    578.06067    960.35065    46911.418 
      71        0.071    581.24817    960.35065     46790.07 
      72        0.072    583.89566    960.35065    46682.544 
      73        0.073    585.98084    960.35065    46592.063 
      74        0.074    587.48727    960.35065    46520.499 
      75        0.075    588.40413    960.35065    46466.671 
      76        0.076    588.72601    960.35065    46430.248 
      77        0.077    588.45287    960.35065    46412.158 
      78        0.078    587.59026    960.35065    46413.058 
      79        0.079    586.14876    960.35065    46432.906 
      80         0.08    584.14382    960.35065    46470.846 
      81        0.081    581.59557    960.35065    46526.226 
      82        0.082    578.52838    960.35065    46598.416 
      83        0.083    574.97064    960.35065    46686.671 
      84        0.084    570.95467    960.35065    46790.616 
      85        0.085     566.5163    960.35065    46908.219 
      86        0.086    561.69446    960.35065    47038.261 
      87        0.087    556.53099    960.35065    47179.129 
      88        0.088    551.07039    960.35065    47329.087 
      89        0.089    545.35946    960.35065    47487.695 
      90         0.09    539.44722    960.35065    47651.011 
      91        0.091    533.38424    960.35065    47818.852 
      92        0.092      527.222    960.35065    47990.615 
      93        0.093    521.01283    960.35065    48165.078 
      94        0.094    514.80944    960.35065    48340.231 
      95        0.095    508.66441    960.35065    48512.695 
      96        0.096     502.6302    960.35065    48682.851 
      97        0.097    496.75889    960.35065    48847.348 
      98        0.098    491.10145    960.35065    49004.565 
      99        0.099    485.70747    960.35065    49153.541 
     100          0.1    480.62491    960.35065    49292.721 
Loop time of 1.93885 on 1 procs for 90 steps with 64 atoms

Performance: 4.011 ns/day, 5.984 hours/ns, 46.419 timesteps/s
100.0% CPU use with 1 MPI tasks x no OpenMP threads

MPI task timing breakdown:
Section |  min time  |  avg time  |  max time  |%varavg| %total
---------------------------------------------------------------
Pair    | 1.9378     | 1.9378     | 1.9378     |   0.0 | 99.94
Neigh   | 0.00020807 | 0.00020807 | 0.00020807 |   0.0 |  0.01
Comm    | 0.00030693 | 0.00030693 | 0.00030693 |   0.0 |  0.02
Output  | 0.00032449 | 0.00032449 | 0.00032449 |   0.0 |  0.02
Modify  | 0.00015812 | 0.00015812 | 0.00015812 |   0.0 |  0.01
Other   |            | 7.338e-05  |            |       |  0.00

Nlocal:        64.0000 ave          64 max          64 min
Histogram: 1 0 0 0 0 0 0 0 0 0
Nghost:        886.000 ave         886 max         886 min
Histogram: 1 0 0 0 0 0 0 0 0 0
Neighs:         0.00000 ave           0 max           0 min
Histogram: 1 0 0 0 0 0 0 0 0 0
FullNghs:      6218.00 ave        6218 max        6218 min
Histogram: 1 0 0 0 0 0 0 0 0 0

Total # of neighbors = 6218
Ave neighs/atom = 97.156250
Neighbor list builds = 1
Dangerous builds = 0
Setting up Verlet run ...
  Unit style    : metal
  Current step  : 100
  Time step     : 0.001
Per MPI rank memory allocation (min/avg/max) = 3.089 | 3.089 | 3.089 Mbytes
Step Time Temp Volume Press 
     100          0.1    480.62491    960.35065    49292.721 
     110         0.11    455.53365    960.35065    49885.868 
     120         0.12    488.90171    960.35065    48624.116 
     130         0.13    561.75591    960.35065    46130.176 
     140         0.14    629.10202    960.35065    43891.966 
     150         0.15    658.00436    960.35065    43054.531 
     160         0.16    645.16462    960.35065    43771.783 
     170         0.17    612.81239    960.35065    45208.655 
     180         0.18    592.69532    960.35065    46287.691 
     190         0.19    601.61601    960.35065    46376.855 
     200          0.2    632.64039    960.35065    45628.835 
     210         0.21    671.75885    960.35065    44568.178 
     220         0.22    710.17514    960.35065    43632.222 
     230         0.23    740.60131    960.35065    43045.461 
     240         0.24    757.16081    960.35065     42901.57 
     250         0.25     756.3297    960.35065    43309.036 
     260         0.26     740.2853    960.35065    44164.555 
     270         0.27    723.51847    960.35065    44990.683 
     280         0.28      721.376    960.35065    45388.749 
     290         0.29    731.73174    960.35065    45387.749 
     300          0.3    736.43773    960.35065    45483.813 
     310         0.31    724.26897    960.35065    46083.988 
     320         0.32    706.98261    960.35065    46874.311 
     330         0.33    700.15935    960.35065    47366.011 
     340         0.34     696.3862    960.35065    47649.316 
     350         0.35    685.30831    960.35065    47930.378 
     360         0.36     677.5718    960.35065    47929.288 
     370         0.37    686.66598    960.35065    47398.583 
     380         0.38     706.3415    960.35065    46578.409 
     390         0.39    719.47188    960.35065    45995.461 
     400          0.4    715.47495    960.35065     45972.35 
     410         0.41    697.02082    960.35065    46381.447 
     420         0.42      680.033    960.35065    46702.065 
     430         0.43    681.36852    960.35065    46479.172 
     440         0.44    701.59376    960.35065    45707.692 
     450         0.45    719.36457    960.35065    44877.138 
     460         0.46    710.67747    960.35065    44725.181 
     470         0.47     676.6406    960.35065    45225.695 
     480         0.48    643.34395    960.35065    45687.022 
     490         0.49    635.99281    960.35065    45314.668 
     500          0.5    658.42051    960.35065    43926.236 
     510         0.51    691.63314    960.35065    42173.927 
     520         0.52    706.96896    960.35065    41004.072 
     530         0.53    686.22674    960.35065    41029.419 
     540         0.54    635.71214    960.35065    42025.268 
     550         0.55    583.53775    960.35065    43098.018 
     560         0.56     559.6383    960.35065    43359.967 
     570         0.57    571.98599    960.35065    42508.621 
     580         0.58     604.2374    960.35065    40958.945 
     590         0.59    636.42972    960.35065    39331.681 
     600          0.6    660.46118    960.35065    38049.139 
     610         0.61    673.96537    960.35065    37357.134 
     620         0.62    667.55478    960.35065    37436.857 
     630         0.63    633.42302    960.35065    38419.332 
     640         0.64    583.32755    960.35065    39991.685 
     650         0.65    545.85906    960.35065    41231.576 
     660         0.66    541.24506    960.35065    41534.651 
     670         0.67    562.15816    960.35065    41076.682 
     680         0.68    585.48975    960.35065    40470.921 
     690         0.69    599.03666    960.35065      40214.1 
     700          0.7    605.50473    960.35065    40425.987 
     710         0.71    603.37239    960.35065    41111.996 
     720         0.72    586.38594    960.35065    42201.328 
     730         0.73    565.58562    960.35065    43219.288 
     740         0.74    568.64488    960.35065    43458.524 
     750         0.75    610.00425    960.35065    42609.889 
     760         0.76    674.73895    960.35065    41171.483 
     770         0.77    733.30745    960.35065    39979.353 
     780         0.78    761.61506    960.35065     39826.57 
     790         0.79    753.43557    960.35065    40777.983 
     800          0.8    726.47648    960.35065    42321.586 
     810         0.81    706.21099    960.35065    43677.158 
     820         0.82     698.7003    960.35065    44572.032 
     830         0.83    694.40466    960.35065    45231.772 
     840         0.84    687.83306    960.35065    45852.455 
     850         0.85    679.60658    960.35065    46461.559 
     860         0.86    671.94131    960.35065    47033.126 
     870         0.87    667.80063    960.35065    47398.572 
     880         0.88    671.61655    960.35065    47299.879 
     890         0.89    686.16637    960.35065    46667.178 
     900          0.9    709.13724    960.35065    45595.669 
     910         0.91    733.54511    960.35065    44442.044 
     920         0.92    749.23848    960.35065    43548.756 
     930         0.93    747.71129    960.35065    43310.295 
     940         0.94    727.53103    960.35065    43787.101 
     950         0.95    697.66829    960.35065    44588.639 
     960         0.96    679.91127    960.35065    44947.835 
     970         0.97    693.46987    960.35065    44387.647 
     980         0.98    728.16516    960.35065    43308.709 
     990         0.99    746.47251    960.35065    42795.297 
    1000            1    718.74734    960.35065    43858.507 
Loop time of 19.6919 on 1 procs for 900 steps with 64 atoms

Performance: 3.949 ns/day, 6.078 hours/ns, 45.704 timesteps/s
100.0% CPU use with 1 MPI tasks x no OpenMP threads

MPI task timing breakdown:
Section |  min time  |  avg time  |  max time  |%varavg| %total
---------------------------------------------------------------
Pair    | 19.683     | 19.683     | 19.683     |   0.0 | 99.95
Neigh   | 0.003142   | 0.003142   | 0.003142   |   0.0 |  0.02
Comm    | 0.0032052  | 0.0032052  | 0.0032052  |   0.0 |  0.02
Output  | 0.00041215 | 0.00041215 | 0.00041215 |   0.0 |  0.00
Modify  | 0.0016044  | 0.0016044  | 0.0016044  |   0.0 |  0.01
Other   |            | 0.0007023  |            |       |  0.00

Nlocal:        64.0000 ave          64 max          64 min
Histogram: 1 0 0 0 0 0 0 0 0 0
Nghost:        886.000 ave         886 max         886 min
Histogram: 1 0 0 0 0 0 0 0 0 0
Neighs:         0.00000 ave           0 max           0 min
Histogram: 1 0 0 0 0 0 0 0 0 0
FullNghs:      6140.00 ave        6140 max        6140 min
Histogram: 1 0 0 0 0 0 0 0 0 0

Total # of neighbors = 6140
Ave neighs/atom = 95.937500
Neighbor list builds = 15
Dangerous builds = 0
Setting up Verlet run ...
  Unit style    : metal
  Current step  : 1000
  Time step     : 0.001
Per MPI rank memory allocation (min/avg/max) = 3.089 | 3.089 | 3.089 Mbytes
Step Time Temp Volume Press 
    1000            1    718.74734    960.35065    43858.507 
    1100          1.1     648.1111    960.35065    46993.328 
    1200          1.2    733.66953    960.35065     48258.43 
    1300          1.3    875.25664    960.35065    46278.941 
    1400          1.4    662.60725    960.35065    52112.777 
    1500          1.5    708.03537    960.35065     43879.87 
    1600          1.6    617.44144    960.35065    41875.593 
    1700          1.7    643.01241    960.35065    41534.969 
    1800          1.8    670.29011    960.35065    43803.666 
    1900          1.9    624.72895    960.35065    47977.391 
    2000            2     820.0923    960.35065    41987.218 
    2100          2.1    677.46457    960.35065    45491.547 
    2200          2.2    690.64525    960.35065    45267.885 
    2300          2.3    712.73691    960.35065    45762.217 
    2400          2.4     691.6145    960.35065    44131.528 
    2500          2.5     674.1148    960.35065    43835.543 
    2600          2.6    678.39793    960.35065    49334.293 
    2700          2.7    789.76343    960.35065    50789.192 
    2800          2.8    667.71398    960.35065    49037.758 
    2900          2.9    612.43065    960.35065    43009.398 
    3000            3    596.06407    960.35065    44169.773 
    3100          3.1    635.66918    960.35065     46309.57 
    3200          3.2    763.20693    960.35065    46077.729 
    3300          3.3     653.2229    960.35065    49167.227 
    3400          3.4    720.60382    960.35065    46404.539 
    3500          3.5     685.1023    960.35065    45015.331 
    3600          3.6    621.69537    960.35065    40510.783 
    3700          3.7    599.45192    960.35065    40641.884 
    3800          3.8    587.64519    960.35065    48141.836 
    3900          3.9    662.61619    960.35065    48068.608 
    4000            4    657.91708    960.35065    47659.448 
    4100          4.1    590.14592    960.35065    46685.001 
    4200          4.2    620.36336    960.35065    43634.573 
    4300          4.3    720.13014    960.35065    40813.496 
    4400          4.4    717.32283    960.35065    45807.099 
    4500          4.5    750.39875    960.35065    48547.973 
    4600          4.6    822.13759    960.35065    45962.487 
    4700          4.7    647.11719    960.35065    47519.508 
    4800          4.8    661.61969    960.35065    41023.037 
    4900          4.9    658.52396    960.35065    41352.073 
    5000            5    661.87934    960.35065    43671.825 
    5100          5.1    644.84435    960.35065    51351.704 
    5200          5.2    834.60357    960.35065    48639.244 
    5300          5.3    783.23213    960.35065    47368.345 
    5400          5.4    747.83672    960.35065    42359.951 
    5500          5.5    700.72124    960.35065    40804.271 
    5600          5.6    614.37412    960.35065    44482.987 
    5700          5.7    752.40562    960.35065      43734.2 
    5800          5.8     655.6866    960.35065    50316.781 
    5900          5.9    755.90999    960.35065    43250.568 
    6000            6    587.80374    960.35065    46158.675 
    6100          6.1     730.7904    960.35065    44179.082 
    6200          6.2    704.73715    960.35065    44995.594 
    6300          6.3    725.94553    960.35065    47540.407 
    6400          6.4    787.90844    960.35065    47081.274 
    6500          6.5    594.35836    960.35065    53703.535 
    6600          6.6    672.74282    960.35065    45108.106 
    6700          6.7    751.59382    960.35065     39365.95 
    6800          6.8    647.82396    960.35065    44111.473 
    6900          6.9    723.80675    960.35065    48558.794 
    7000            7    913.21281    960.35065    46588.344 
    7100          7.1    778.29895    960.35065     47609.64 
    7200          7.2    709.39437    960.35065    45965.236 
    7300          7.3    659.84931    960.35065    44657.081 
    7400          7.4    614.89194    960.35065    44804.887 
    7500          7.5    704.32082    960.35065    48614.161 
    7600          7.6    827.52505    960.35065    50331.737 
    7700          7.7    734.97233    960.35065    45709.514 
    7800          7.8    663.30677    960.35065    45497.603 
    7900          7.9    675.79378    960.35065    43320.633 
    8000            8    737.28501    960.35065    44003.375 
    8100          8.1    807.86573    960.35065    46219.524 
    8200          8.2    657.02254    960.35065     53412.37 
    8300          8.3    819.21225    960.35065     47768.36 
    8400          8.4    627.62639    960.35065    48971.932 
    8500          8.5    618.62971    960.35065    44707.295 
    8600          8.6    643.80611    960.35065    43299.827 
    8700          8.7    595.57947    960.35065    47200.013 
    8800          8.8    800.71375    960.35065    50793.396 
    8900          8.9    866.51642    960.35065    46402.537 
    9000            9    664.72701    960.35065    48309.824 
    9100          9.1    756.32471    960.35065    43286.073 
    9200          9.2    601.53776    960.35065    48184.316 
    9300          9.3    787.74657    960.35065    45670.169 
    9400          9.4    818.27338    960.35065    51875.541 
    9500          9.5    749.91626    960.35065    50286.015 
    9600          9.6    671.90681    960.35065    42764.311 
    9700          9.7    650.92051    960.35065    43860.868 
    9800          9.8    700.75205    960.35065    44607.776 
    9900          9.9    753.80663    960.35065    47881.504 
   10000           10    807.64581    960.35065     48043.88 
Loop time of 198.749 on 1 procs for 9000 steps with 64 atoms

Performance: 3.912 ns/day, 6.134 hours/ns, 45.283 timesteps/s
100.0% CPU use with 1 MPI tasks x no OpenMP threads

MPI task timing breakdown:
Section |  min time  |  avg time  |  max time  |%varavg| %total
---------------------------------------------------------------
Pair    | 198.66     | 198.66     | 198.66     |   0.0 | 99.96
Neigh   | 0.033969   | 0.033969   | 0.033969   |   0.0 |  0.02
Comm    | 0.031886   | 0.031886   | 0.031886   |   0.0 |  0.02
Output  | 0.00055933 | 0.00055933 | 0.00055933 |   0.0 |  0.00
Modify  | 0.015987   | 0.015987   | 0.015987   |   0.0 |  0.01
Other   |            | 0.006919   |            |       |  0.00

Nlocal:        64.0000 ave          64 max          64 min
Histogram: 1 0 0 0 0 0 0 0 0 0
Nghost:        886.000 ave         886 max         886 min
Histogram: 1 0 0 0 0 0 0 0 0 0
Neighs:         0.00000 ave           0 max           0 min
Histogram: 1 0 0 0 0 0 0 0 0 0
FullNghs:      6130.00 ave        6130 max        6130 min
Histogram: 1 0 0 0 0 0 0 0 0 0

Total # of neighbors = 6130
Ave neighs/atom = 95.781250
Neighbor list builds = 160
Dangerous builds = 0
System init for write_data ...
Total wall time: 0:03:40
