LAMMPS data file via write_data, version 29 Sep 2021, timestep = 10000

64 atoms
1 atom types

0 10.519999999999747 xlo xhi
0 9.110587247812074 ylo yhi
0 10.02 zlo zhi
0 0 0 xy xz yz

Masses

1 65.38

Atoms # atomic

1 1 1.555766787800151 5.4972834469532605 3.8080408117107614 0 0 0
2 1 1.3087241423620664 5.236740384989816 8.501476148555396 0 0 0
3 1 10.301192888734423 7.913765677138972 3.995149685640526 -1 0 0
4 1 10.511402405011566 7.447682842004404 8.583607873115993 -1 0 0
5 1 6.5049671830807245 0.9998526141203576 3.9298265133206765 0 0 0
6 1 6.4788059810892 0.8422393865207932 8.909888931890745 0 0 0
7 1 5.261860335958904 3.0605500569174313 4.206530500554358 0 0 0
8 1 5.297581663175928 3.0994335542718674 8.570968701233605 0 0 0
9 1 1.4560190334820735 0.8897755315022439 3.3442581555525455 0 0 0
10 1 1.1375025264152798 0.6501820382440974 8.896282886935788 0 0 0
11 1 10.506468226139559 2.99627201265864 3.5734954021082155 -1 0 0
12 1 10.42409769711369 2.8763520052808844 8.94325753716285 -1 0 0
13 1 3.8031806727127915 0.6197812592813298 3.673999513518173 0 0 0
14 1 3.8318033144629218 0.6473713044923011 8.507394689204228 0 0 0
15 1 2.605501153565331 3.0939517531385796 3.6334907189248358 0 0 0
16 1 2.5137607386113623 3.0621988469418717 8.921516817074249 0 0 0
17 1 6.773017877912923 5.3540365698659835 3.27702645432002 0 0 0
18 1 6.594953527828115 5.366810230839256 8.850201398042259 0 0 0
19 1 5.4854921520601305 7.913557940213667 3.6672966648166825 0 0 0
20 1 5.120928161567523 7.581551538403726 8.81166730701646 0 0 0
21 1 9.59614451997707 5.371878046037636 4.0210203221798455 0 0 0
22 1 9.15480116746181 5.1754120147961205 8.921438839768086 0 0 0
23 1 7.721102670805602 7.778224523557034 3.157153399430319 0 0 0
24 1 8.001944879340464 7.46373828723362 8.391868577949738 0 0 0
25 1 4.242318106840624 5.51099928792342 4.0036962130006915 0 0 0
26 1 4.05921663381258 5.332319677553772 9.013947350640482 0 0 0
27 1 2.4927505908059353 7.513396522519282 3.9691860866177784 0 0 0
28 1 2.4525400457061477 7.451507264766393 8.55975678527251 0 0 0
29 1 9.082108116966163 0.8858544232472362 3.4289871141568473 0 0 0
30 1 8.939092894855426 0.4247391700544111 8.834076212619715 0 0 0
31 1 8.241852812748764 3.0111270866337305 4.468956037467488 0 0 0
32 1 7.795466246920709 2.951503423539381 9.0478834312935 0 0 0
33 1 5.397128847003012 1.4640740764032638 1.3657433132318957 0 0 0
34 1 5.102806590394511 1.2455196439477387 6.2383335047448725 0 0 0
35 1 3.967442099692059 3.5228498634021945 1.369440179411501 0 0 0
36 1 3.822320126552346 3.636385970156726 6.640578609652124 0 0 0
37 1 2.6191997095123383 5.848636827706273 1.2468508105525131 0 0 0
38 1 2.8832318662734715 5.973432011515841 6.256101630577295 0 0 0
39 1 1.4217709579564135 8.141231215533601 1.0824213550863084 0 0 0
40 1 1.3418286700039708 8.390205550295915 6.148786546814406 0 0 0
41 1 10.44234844400888 1.7161216789251392 1.0394726866974568 -1 0 0
42 1 0.1255760738826758 1.7232877830796247 6.068373042327645 0 0 0
43 1 2.8225606919173156 1.233322149953075 1.1542298098294612 0 0 0
44 1 2.5522446351536607 1.569473261803125 6.246783104829802 0 0 0
45 1 1.1916571564293446 3.89009499397178 0.9565695760054619 0 0 0
46 1 1.2770915369300362 3.857549569592745 6.359360044214996 0 0 0
47 1 10.469275430409924 5.980941503592654 1.5725962358577423 -1 0 0
48 1 10.434752093928035 5.998914237367036 6.186807281962856 -1 0 0
49 1 9.288226933303935 3.9152634559878807 1.4837157005165595 0 0 0
50 1 9.164741665176805 3.8353026628696507 6.549185003466222 0 0 0
51 1 7.879829667089078 6.26003236784344 1.135652772224822 0 0 0
52 1 7.750582077294477 6.161186799290993 5.564277216897058 0 0 0
53 1 6.500366517166126 8.38766097438988 0.9441455812052812 0 0 0
54 1 6.662798264373649 8.403893451506548 6.009203470937473 0 0 0
55 1 9.34806569740916 8.341472682803785 1.123158085291333 0 0 0
56 1 9.2959629412685 8.645825865405222 6.368220184754366 0 0 0
57 1 7.873136794255963 1.403293444373432 1.145584751936856 0 0 0
58 1 7.934424961762423 1.5168539369375853 6.832148364771506 0 0 0
59 1 6.611428139866359 3.7977564444444956 1.3668222150653915 0 0 0
60 1 6.5629763688043665 4.038560790527723 6.283009865880665 0 0 0
61 1 5.217767003450257 6.078909861381163 1.1720292795812033 0 0 0
62 1 5.228083281973106 6.134818225516166 6.410778866676705 0 0 0
63 1 3.9139736226367328 8.063587168138382 1.4035471633965713 0 0 0
64 1 3.8440359787857474 8.342244739686125 6.492726664504551 0 0 0

Velocities

1 -4.8540417975040056 -1.0350762646524863 1.1129524182568227
2 -1.3052113662095095 1.2933704527621412 -8.789835132893248
3 2.6908765546969713 6.158702860605084 0.9734422202649955
4 -1.2703807128716593 5.806876250929289 3.751849335705131
5 1.8334527179856215 2.0905919918442772 -3.071270690327001
6 -0.9690188390267953 1.5303622200747735 0.31607661207749344
7 2.1036982292615445 -2.9260566962173367 -0.8879160935667553
8 0.8872417971255326 -2.606971400613782 -1.4541563918537346
9 -4.485630347097616 4.062364826652451 -3.219334671257629
10 -1.3684559853741856 0.09325172670893675 -3.63458052473119
11 -0.42734132764087834 3.375814595985483 -1.7252073888623887
12 -0.4704082762908453 -0.5917813764315095 -0.7869522846214514
13 -5.51423534347253 -2.2073034111974748 -0.8922817859764239
14 1.1242038104893712 -3.3586660883384343 -1.426395932104793
15 -2.07685982288351 -0.9104000809652755 4.660787676353219
16 0.8923451869080912 0.5092777298146429 -1.1914439286262224
17 -0.47007163594337537 -1.0107616443659795 -2.896448509523798
18 -2.605092233562348 -0.49283011951983485 5.054225434933273
19 1.4044588743725932 -1.3888522000392474 1.014536469764744
20 0.7754118890592953 -2.4119312085449947 5.444559580591223
21 -3.670465585108754 -0.20428215207599731 -4.237005401306145
22 5.14387455516486 -5.616367541536513 3.6092531201312292
23 5.002213777192453 3.2275691048779978 -1.393715381431624
24 0.8844549742638279 -2.6504300521875632 -3.590456512790373
25 -1.744376927279099 3.4301427618265574 3.9590902513293864
26 0.8357600043277194 -1.657393924167035 2.4609251471707765
27 -1.9019219079645597 3.1545578052378582 -0.5757490410901611
28 1.6275392974329626 -1.5119580549122706 -1.917049126918205
29 0.8875734031461385 -3.0901323697577094 -8.328229327456455
30 5.473845272702702 0.7416798770886718 -2.11614691999765
31 2.975430441345109 3.003395249776604 -5.936871366361811
32 -3.7718806290699836 0.758815947506927 2.0876382372779836
33 -0.13405461937723936 -0.2613232071335977 2.835957364048863
34 3.2334958304252615 -2.4073910809811925 -1.0992262331256768
35 1.3115063882848297 -6.678184714718594 5.212152567313895
36 -2.7024684924076374 -2.3557371832136145 -4.144153247681679
37 0.9159695040683594 -5.146923085015761 -0.5040818292344645
38 -1.6779686460136607 1.4200460826290935 1.3324942483188589
39 -1.5793988005500639 4.860341056237792 5.501266844364807
40 5.9677008754718575 -4.011831986796753 4.078487373601213
41 -0.6199966904955884 -1.896770963545888 0.9748784748675912
42 -7.480962558191441 2.570895451853116 -2.7455618252544833
43 -1.1706752625396215 0.3887828159832618 -2.9148499312462643
44 4.823148899121385 -3.9913195386152487 0.9264244309000538
45 -0.9210400688070822 5.726654651435212 -0.5814595522754357
46 2.4916850179178556 -0.11107581786460723 5.431834464213985
47 0.825459673600716 -0.5695783875572725 1.4128402551059989
48 -2.0464249355623227 0.25670852662525195 1.4874069680914126
49 1.2645412299350187 -0.6542306063645688 0.8088091435634654
50 0.1182965306467865 -5.5091320552176555 2.331074161986534
51 -0.6729494113590413 1.230762047573744 0.7421605396908224
52 5.475597232002187 0.07969359345917987 -5.832818127208984
53 -3.157907026745027 5.326553312657653 2.253853661091465
54 -3.103312545045863 -0.02180742263200443 2.5312869498857102
55 -1.3613088766626855 -0.6872716354974535 3.7625627528470766
56 4.996294087627716 2.192017027738301 -1.3383711400827383
57 1.0936270904557661 -0.44084741431566665 -6.9285662724347885
58 -0.191707358610698 -0.04305179360467725 3.6446927272623912
59 -5.343572533724202 -1.2230750124471532 4.0530021525800075
60 -2.3788369584938187 -6.496647409685055 -0.23061420671896016
61 4.708444832798163 -1.809994251338216 -2.629742379635071
62 -1.5950209638646293 0.706864255274896 2.7698327255292283
63 3.914475324153832 9.864455928069773 1.32417811745085
64 -2.639624816234354 4.126840000839772 -0.8400412699748635
