ITEM: TIMESTEP
10000
ITEM: NUMBER OF ATOMS
64
ITEM: BOX BOUNDS xy xz yz pp pp pp
0.0000000000000000e+00 1.0519999999999747e+01 0.0000000000000000e+00
0.0000000000000000e+00 9.1105872478120737e+00 0.0000000000000000e+00
0.0000000000000000e+00 1.0020000000000000e+01 0.0000000000000000e+00
ITEM: ATOMS id type x y z
1 1 1.55577 5.49728 3.80804
2 1 1.30872 5.23674 8.50148
3 1 10.3012 7.91377 3.99515
4 1 10.5114 7.44768 8.58361
5 1 6.50497 0.999853 3.92983
6 1 6.47881 0.842239 8.90989
7 1 5.26186 3.06055 4.20653
8 1 5.29758 3.09943 8.57097
9 1 1.45602 0.889776 3.34426
10 1 1.1375 0.650182 8.89628
11 1 10.5065 2.99627 3.5735
12 1 10.4241 2.87635 8.94326
13 1 3.80318 0.619781 3.674
14 1 3.8318 0.647371 8.50739
15 1 2.6055 3.09395 3.63349
16 1 2.51376 3.0622 8.92152
17 1 6.77302 5.35404 3.27703
18 1 6.59495 5.36681 8.8502
19 1 5.48549 7.91356 3.6673
20 1 5.12093 7.58155 8.81167
21 1 9.59614 5.37188 4.02102
22 1 9.1548 5.17541 8.92144
23 1 7.7211 7.77822 3.15715
24 1 8.00194 7.46374 8.39187
25 1 4.24232 5.511 4.0037
26 1 4.05922 5.33232 9.01395
27 1 2.49275 7.5134 3.96919
28 1 2.45254 7.45151 8.55976
29 1 9.08211 0.885854 3.42899
30 1 8.93909 0.424739 8.83408
31 1 8.24185 3.01113 4.46896
32 1 7.79547 2.9515 9.04788
33 1 5.39713 1.46407 1.36574
34 1 5.10281 1.24552 6.23833
35 1 3.96744 3.52285 1.36944
36 1 3.82232 3.63639 6.64058
37 1 2.6192 5.84864 1.24685
38 1 2.88323 5.97343 6.2561
39 1 1.42177 8.14123 1.08242
40 1 1.34183 8.39021 6.14879
41 1 10.4423 1.71612 1.03947
42 1 0.125576 1.72329 6.06837
43 1 2.82256 1.23332 1.15423
44 1 2.55224 1.56947 6.24678
45 1 1.19166 3.89009 0.95657
46 1 1.27709 3.85755 6.35936
47 1 10.4693 5.98094 1.5726
48 1 10.4348 5.99891 6.18681
49 1 9.28823 3.91526 1.48372
50 1 9.16474 3.8353 6.54919
51 1 7.87983 6.26003 1.13565
52 1 7.75058 6.16119 5.56428
53 1 6.50037 8.38766 0.944146
54 1 6.6628 8.40389 6.0092
55 1 9.34807 8.34147 1.12316
56 1 9.29596 8.64583 6.36822
57 1 7.87314 1.40329 1.14558
58 1 7.93442 1.51685 6.83215
59 1 6.61143 3.79776 1.36682
60 1 6.56298 4.03856 6.28301
61 1 5.21777 6.07891 1.17203
62 1 5.22808 6.13482 6.41078
63 1 3.91397 8.06359 1.40355
64 1 3.84404 8.34224 6.49273
