LAMMPS (29 Sep 2021 - Update 1)
Reading data file ...
  triclinic box = (0.0000000 0.0000000 0.0000000) to (10.560000 9.1452283 10.380000) with tilt (0.0000000 0.0000000 0.0000000)
  1 by 1 by 1 MPI processor grid
  reading atoms ...
  64 atoms
  read_data CPU = 0.001 seconds
Neighbor list info ...
  update every 1 steps, delay 0 steps, check yes
  max neighbors/atom: 2000, page size: 100000
  master list distance cutoff = 7
  ghost atom cutoff = 7
  binsize = 3.5, bins = 4 3 3
  1 neighbor lists, perpetual/occasional/extra = 1 0 0
  (1) pair mlip, perpetual
      attributes: full, newton on
      pair build: full/bin/atomonly
      stencil: full/bin/3d
      bin: standard
Setting up Verlet run ...
  Unit style    : metal
  Current step  : 0
  Time step     : 0.001
Per MPI rank memory allocation (min/avg/max) = 3.089 | 3.089 | 3.089 Mbytes
Step Time Temp Volume Press 
       0            0         1380    1002.4341   -7130.5254 
       1        0.001    1379.0448    1002.4341   -7097.1572 
       2        0.002    1376.1848    1002.4341   -6997.1972 
       3        0.003    1371.4347    1002.4341   -6831.0174 
       4        0.004    1364.8161    1002.4341   -6599.2079 
       5        0.005    1356.3577    1002.4341   -6302.5761 
       6        0.006    1346.0959    1002.4341   -5944.1283 
       7        0.007    1334.0753    1002.4341   -5529.0837 
       8        0.008    1320.3487    1002.4341   -5061.3824 
       9        0.009    1304.9753    1002.4341   -4539.7782 
      10         0.01    1288.0201    1002.4341   -3964.3432 
Loop time of 0.221357 on 1 procs for 10 steps with 64 atoms

Performance: 3.903 ns/day, 6.149 hours/ns, 45.176 timesteps/s
90.6% CPU use with 1 MPI tasks x no OpenMP threads

MPI task timing breakdown:
Section |  min time  |  avg time  |  max time  |%varavg| %total
---------------------------------------------------------------
Pair    | 0.22124    | 0.22124    | 0.22124    |   0.0 | 99.95
Neigh   | 0          | 0          | 0          |   0.0 |  0.00
Comm    | 3.6479e-05 | 3.6479e-05 | 3.6479e-05 |   0.0 |  0.02
Output  | 4.0587e-05 | 4.0587e-05 | 4.0587e-05 |   0.0 |  0.02
Modify  | 2.9019e-05 | 2.9019e-05 | 2.9019e-05 |   0.0 |  0.01
Other   |            | 1.097e-05  |            |       |  0.00

Nlocal:        64.0000 ave          64 max          64 min
Histogram: 1 0 0 0 0 0 0 0 0 0
Nghost:        886.000 ave         886 max         886 min
Histogram: 1 0 0 0 0 0 0 0 0 0
Neighs:         0.00000 ave           0 max           0 min
Histogram: 1 0 0 0 0 0 0 0 0 0
FullNghs:      6272.00 ave        6272 max        6272 min
Histogram: 1 0 0 0 0 0 0 0 0 0

Total # of neighbors = 6272
Ave neighs/atom = 98.000000
Neighbor list builds = 0
Dangerous builds = 0
Setting up Verlet run ...
  Unit style    : metal
  Current step  : 10
  Time step     : 0.001
Per MPI rank memory allocation (min/avg/max) = 3.089 | 3.089 | 3.089 Mbytes
Step Time Temp Volume Press 
      10         0.01    1288.0201    1002.4341   -3964.3432 
      11        0.011    1269.5538    1002.4341   -3338.5065 
      12        0.012    1249.6535    1002.4341   -2663.2467 
      13        0.013    1228.4011    1002.4341   -1942.9648 
      14        0.014    1205.8837    1002.4341   -1179.9884 
      15        0.015    1182.1941    1002.4341   -379.05952 
      16        0.016    1157.4303    1002.4341    457.45952 
      17        0.017    1131.6952    1002.4341    1325.8122 
      18        0.018     1105.096    1002.4341    2220.3758 
      19        0.019    1077.7447    1002.4341    3141.6094 
      20         0.02    1049.7579    1002.4341    4082.1285 
      21        0.021    1021.2558    1002.4341    5042.1885 
      22        0.022    992.36245    1002.4341    6017.9347 
      23        0.023    963.20339    1002.4341    7001.9102 
      24        0.024    933.90475    1002.4341      7985.13 
      25        0.025    904.59376    1002.4341    8969.0467 
      26        0.026    875.39807    1002.4341    9948.0762 
      27        0.027    846.44482    1002.4341    10923.738 
      28        0.028    817.85986    1002.4341    11891.638 
      29        0.029    789.76577    1002.4341    12846.974 
      30         0.03    762.28104    1002.4341    13786.702 
      31        0.031    735.51903    1002.4341    14704.515 
      32        0.032    709.58723    1002.4341    15599.622 
      33        0.033    684.58646    1002.4341    16467.584 
      34        0.034    660.60995    1002.4341    17306.681 
      35        0.035     637.7426    1002.4341    18112.362 
      36        0.036    616.06013    1002.4341    18881.978 
      37        0.037     595.6286    1002.4341    19612.655 
      38        0.038    576.50414    1002.4341    20303.824 
      39        0.039    558.73253    1002.4341    20951.894 
      40         0.04    542.34866    1002.4341     21554.58 
      41        0.041    527.37701    1002.4341    22113.541 
      42        0.042    513.83194    1002.4341    22628.154 
      43        0.043    501.71741    1002.4341    23097.447 
      44        0.044    491.02736    1002.4341    23521.141 
      45        0.045    481.74605    1002.4341    23898.572 
      46        0.046     473.8487    1002.4341    24230.309 
      47        0.047    467.30236    1002.4341    24516.706 
      48        0.048    462.06641    1002.4341    24757.734 
      49        0.049    458.09343    1002.4341    24955.324 
      50         0.05    455.33022    1002.4341    25110.964 
      51        0.051    453.71835    1002.4341    25224.986 
      52        0.052    453.19486    1002.4341    25297.279 
      53        0.053    453.69349    1002.4341    25332.293 
      54        0.054    455.14549    1002.4341    25330.219 
      55        0.055    457.48016    1002.4341    25292.707 
      56        0.056    460.62564    1002.4341    25221.175 
      57        0.057    464.50993    1002.4341    25120.887 
      58        0.058    469.06164    1002.4341     24994.42 
      59        0.059    474.21033    1002.4341    24843.956 
      60         0.06    479.88689    1002.4341    24670.941 
      61        0.061    486.02377    1002.4341    24477.377 
      62        0.062    492.55567    1002.4341    24266.498 
      63        0.063    499.41995    1002.4341    24039.105 
      64        0.064    506.55665    1002.4341    23795.782 
      65        0.065     513.9082    1002.4341    23538.185 
      66        0.066    521.41998    1002.4341    23271.685 
      67        0.067    529.04069    1002.4341    22997.759 
      68        0.068    536.72196    1002.4341    22717.916 
      69        0.069    544.41811    1002.4341    22432.073 
      70         0.07    552.08639    1002.4341    22143.572 
      71        0.071     559.6872    1002.4341    21854.422 
      72        0.072    567.18363    1002.4341    21565.279 
      73        0.073    574.54094    1002.4341     21280.32 
      74        0.074    581.72685    1002.4341    21000.402 
      75        0.075    588.71148    1002.4341    20724.681 
      76        0.076    595.46706    1002.4341    20454.436 
      77        0.077    601.96793    1002.4341    20189.635 
      78        0.078    608.19045    1002.4341    19932.243 
      79        0.079    614.11256    1002.4341    19684.964 
      80         0.08    619.71379    1002.4341    19448.395 
      81        0.081    624.97549    1002.4341    19223.648 
      82        0.082    629.88032    1002.4341    19011.159 
      83        0.083     634.4125    1002.4341    18808.271 
      84        0.084    638.55757    1002.4341    18618.255 
      85        0.085    642.30201    1002.4341    18442.223 
      86        0.086     645.6334    1002.4341    18280.408 
      87        0.087    648.54042    1002.4341    18134.255 
      88        0.088    651.01287    1002.4341    18004.758 
      89        0.089    653.04169    1002.4341    17892.335 
      90         0.09    654.61884    1002.4341    17796.436 
      91        0.091    655.73762    1002.4341    17717.282 
      92        0.092    656.39278    1002.4341    17656.466 
      93        0.093    656.58051    1002.4341    17612.435 
      94        0.094    656.29854    1002.4341    17586.952 
      95        0.095    655.54614    1002.4341    17579.468 
      96        0.096    654.32421    1002.4341    17589.056 
      97        0.097    652.63519    1002.4341    17615.363 
      98        0.098    650.48369    1002.4341    17658.737 
      99        0.099    647.87692    1002.4341    17718.285 
     100          0.1    644.82439    1002.4341    17794.983 
Loop time of 1.85737 on 1 procs for 90 steps with 64 atoms

Performance: 4.187 ns/day, 5.733 hours/ns, 48.456 timesteps/s
99.9% CPU use with 1 MPI tasks x no OpenMP threads

MPI task timing breakdown:
Section |  min time  |  avg time  |  max time  |%varavg| %total
---------------------------------------------------------------
Pair    | 1.8563     | 1.8563     | 1.8563     |   0.0 | 99.94
Neigh   | 0.00020971 | 0.00020971 | 0.00020971 |   0.0 |  0.01
Comm    | 0.00030616 | 0.00030616 | 0.00030616 |   0.0 |  0.02
Output  | 0.00032531 | 0.00032531 | 0.00032531 |   0.0 |  0.02
Modify  | 0.0001613  | 0.0001613  | 0.0001613  |   0.0 |  0.01
Other   |            | 7.91e-05   |            |       |  0.00

Nlocal:        64.0000 ave          64 max          64 min
Histogram: 1 0 0 0 0 0 0 0 0 0
Nghost:        886.000 ave         886 max         886 min
Histogram: 1 0 0 0 0 0 0 0 0 0
Neighs:         0.00000 ave           0 max           0 min
Histogram: 1 0 0 0 0 0 0 0 0 0
FullNghs:      5838.00 ave        5838 max        5838 min
Histogram: 1 0 0 0 0 0 0 0 0 0

Total # of neighbors = 5838
Ave neighs/atom = 91.218750
Neighbor list builds = 1
Dangerous builds = 0
Setting up Verlet run ...
  Unit style    : metal
  Current step  : 100
  Time step     : 0.001
Per MPI rank memory allocation (min/avg/max) = 3.089 | 3.089 | 3.089 Mbytes
Step Time Temp Volume Press 
     100          0.1    644.82439    1002.4341    17794.983 
     110         0.11    593.50517    1002.4341    19330.509 
     120         0.12    524.58501    1002.4341    21482.001 
     130         0.13    476.17445    1002.4341    22967.554 
     140         0.14    476.56117    1002.4341    22981.384 
     150         0.15     523.0316    1002.4341    21461.296 
     160         0.16    588.62964    1002.4341    19367.565 
     170         0.17    645.53498    1002.4341    17590.261 
     180         0.18    679.74319    1002.4341    16632.675 
     190         0.19    693.19763    1002.4341    16457.368 
     200          0.2    696.31647    1002.4341    16795.886 
     210         0.21    696.74784    1002.4341     17361.43 
     220         0.22    694.67554    1002.4341    18081.408 
     230         0.23    685.08302    1002.4341     19068.27 
     240         0.24    663.76002    1002.4341    20326.425 
     250         0.25    636.62644    1002.4341    21663.383 
     260         0.26    620.33609    1002.4341     22602.46 
     270         0.27    627.03864    1002.4341    22809.503 
     280         0.28    651.96937    1002.4341    22413.273 
     290         0.29    679.65511    1002.4341    21905.203 
     300          0.3    698.10183    1002.4341    21622.035 
     310         0.31    705.08927    1002.4341    21680.826 
     320         0.32    705.36789    1002.4341    21932.713 
     330         0.33    704.13829    1002.4341    22223.991 
     340         0.34    703.08883    1002.4341    22602.776 
     350         0.35    700.37245    1002.4341    23169.016 
     360         0.36    691.58236    1002.4341    24009.427 
     370         0.37    670.98243    1002.4341    25259.042 
     380         0.38    636.63011    1002.4341    26917.257 
     390         0.39    595.88309    1002.4341    28600.934 
     400          0.4      568.258    1002.4341    29622.264 
     410         0.41    583.79431    1002.4341    29039.055 
     420         0.42    664.60567    1002.4341    26269.342 
     430         0.43    793.56288    1002.4341    22115.373 
     440         0.44    911.64609    1002.4341    18407.339 
     450         0.45     957.9004    1002.4341    17001.883 
     460         0.46    911.63276    1002.4341    18670.149 
     470         0.47    802.08601    1002.4341    22437.186 
     480         0.48    692.32914    1002.4341    26198.296 
     490         0.49    645.47225    1002.4341    27951.139 
     500          0.5     679.6359    1002.4341    26989.855 
     510         0.51    755.43859    1002.4341     24496.78 
     520         0.52    812.68298    1002.4341     22383.06 
     530         0.53    813.85619    1002.4341    21868.485 
     540         0.54    763.62751    1002.4341    22926.014 
     550         0.55    700.53184    1002.4341    24498.529 
     560         0.56    663.31659    1002.4341    25371.832 
     570         0.57      658.496    1002.4341    25227.283 
     580         0.58    665.69329    1002.4341    24552.905 
     590         0.59    666.41089    1002.4341    23918.872 
     600          0.6    659.44941    1002.4341    23541.268 
     610         0.61    653.40799    1002.4341    23238.148 
     620         0.62    651.01465    1002.4341    22920.645 
     630         0.63    649.94895    1002.4341     22578.38 
     640         0.64    655.54032    1002.4341    22113.003 
     650         0.65    673.96353    1002.4341    21341.049 
     660         0.66    694.38788    1002.4341    20512.293 
     670         0.67    697.78774    1002.4341    20188.637 
     680         0.68    683.15442    1002.4341    20375.799 
     690         0.69    668.48594    1002.4341    20636.082 
     700          0.7    670.13625    1002.4341    20396.508 
     710         0.71     691.5767    1002.4341     19572.28 
     720         0.72    722.43725    1002.4341    18538.491 
     730         0.73    742.70459    1002.4341    17928.013 
     740         0.74    737.61975    1002.4341    18187.249 
     750         0.75    708.11361    1002.4341    19258.171 
     760         0.76    669.73282    1002.4341    20638.423 
     770         0.77    642.89017    1002.4341    21670.952 
     780         0.78    637.23869    1002.4341    21977.318 
     790         0.79      646.552    1002.4341    21704.197 
     800          0.8    658.13328    1002.4341    21246.518 
     810         0.81    662.53015    1002.4341     20942.53 
     820         0.82    657.55033    1002.4341    20979.409 
     830         0.83    648.93186    1002.4341    21174.337 
     840         0.84    647.37629    1002.4341    21334.647 
     850         0.85    662.91738    1002.4341    21101.509 
     860         0.86    697.39992    1002.4341    20415.815 
     870         0.87    736.65662    1002.4341    19695.741 
     880         0.88    759.47844    1002.4341    19414.029 
     890         0.89    760.29802    1002.4341    19775.444 
     900          0.9     749.7211    1002.4341    20492.841 
     910         0.91    735.73286    1002.4341    21318.694 
     920         0.92    720.05599    1002.4341    22052.512 
     930         0.93    709.19317    1002.4341     22453.41 
     940         0.94    713.57156    1002.4341    22308.294 
     950         0.95    728.68079    1002.4341    21926.268 
     960         0.96     729.3012    1002.4341    21938.965 
     970         0.97    698.53787    1002.4341    22812.417 
     980         0.98    650.28819    1002.4341    24216.135 
     990         0.99    613.57695    1002.4341    25377.055 
    1000            1    602.95432    1002.4341    25889.097 
Loop time of 18.7251 on 1 procs for 900 steps with 64 atoms

Performance: 4.153 ns/day, 5.779 hours/ns, 48.064 timesteps/s
100.0% CPU use with 1 MPI tasks x no OpenMP threads

MPI task timing breakdown:
Section |  min time  |  avg time  |  max time  |%varavg| %total
---------------------------------------------------------------
Pair    | 18.716     | 18.716     | 18.716     |   0.0 | 99.95
Neigh   | 0.0031625  | 0.0031625  | 0.0031625  |   0.0 |  0.02
Comm    | 0.0031333  | 0.0031333  | 0.0031333  |   0.0 |  0.02
Output  | 0.00041535 | 0.00041535 | 0.00041535 |   0.0 |  0.00
Modify  | 0.0016299  | 0.0016299  | 0.0016299  |   0.0 |  0.01
Other   |            | 0.0006821  |            |       |  0.00

Nlocal:        64.0000 ave          64 max          64 min
Histogram: 1 0 0 0 0 0 0 0 0 0
Nghost:        880.000 ave         880 max         880 min
Histogram: 1 0 0 0 0 0 0 0 0 0
Neighs:         0.00000 ave           0 max           0 min
Histogram: 1 0 0 0 0 0 0 0 0 0
FullNghs:      5820.00 ave        5820 max        5820 min
Histogram: 1 0 0 0 0 0 0 0 0 0

Total # of neighbors = 5820
Ave neighs/atom = 90.937500
Neighbor list builds = 15
Dangerous builds = 0
Setting up Verlet run ...
  Unit style    : metal
  Current step  : 1000
  Time step     : 0.001
Per MPI rank memory allocation (min/avg/max) = 3.089 | 3.089 | 3.089 Mbytes
Step Time Temp Volume Press 
    1000            1    602.95432    1002.4341    25889.097 
    1100          1.1    748.25422    1002.4341    21136.026 
    1200          1.2    737.51449    1002.4341    24484.857 
    1300          1.3    670.46508    1002.4341    22296.478 
    1400          1.4    663.92359    1002.4341    16920.851 
    1500          1.5    620.09878    1002.4341    17727.827 
    1600          1.6    809.52998    1002.4341    19422.101 
    1700          1.7    637.14235    1002.4341    27975.445 
    1800          1.8    793.14595    1002.4341     21421.94 
    1900          1.9    704.68871    1002.4341    19143.121 
    2000            2    488.91447    1002.4341    21519.438 
    2100          2.1    626.66379    1002.4341    18276.869 
    2200          2.2    682.05806    1002.4341     21285.34 
    2300          2.3    756.10005    1002.4341    20623.212 
    2400          2.4    733.85527    1002.4341    21092.557 
    2500          2.5    599.61536    1002.4341    20585.284 
    2600          2.6    526.76106    1002.4341    17152.819 
    2700          2.7    602.44756    1002.4341    14969.691 
    2800          2.8    662.25104    1002.4341    23000.846 
    2900          2.9    676.89253    1002.4341    25856.589 
    3000            3    692.08455    1002.4341    22888.272 
    3100          3.1     619.5812    1002.4341    22719.258 
    3200          3.2    710.73289    1002.4341    17579.561 
    3300          3.3    720.60991    1002.4341    17045.406 
    3400          3.4    577.95568    1002.4341    20391.781 
    3500          3.5    615.11615    1002.4341     19769.18 
    3600          3.6     652.7941    1002.4341    24216.556 
    3700          3.7    798.06788    1002.4341    24877.955 
    3800          3.8    700.04866    1002.4341    25994.925 
    3900          3.9    689.02772    1002.4341    22918.182 
    4000            4     683.3778    1002.4341    21053.501 
    4100          4.1    677.90299    1002.4341     22078.35 
    4200          4.2    740.57741    1002.4341    21628.689 
    4300          4.3    744.84911    1002.4341    23935.876 
    4400          4.4    670.17882    1002.4341    21315.116 
    4500          4.5    617.26299    1002.4341    18276.414 
    4600          4.6    612.64203    1002.4341    18137.661 
    4700          4.7    707.74355    1002.4341    20340.869 
    4800          4.8    748.74507    1002.4341    23153.388 
    4900          4.9    667.62293    1002.4341    23507.472 
    5000            5    632.93771    1002.4341    22525.401 
    5100          5.1    742.09688    1002.4341     18093.94 
    5200          5.2    613.43211    1002.4341     23197.84 
    5300          5.3    677.84242    1002.4341    19583.179 
    5400          5.4    661.13887    1002.4341    20554.585 
    5500          5.5    686.53956    1002.4341    22802.234 
    5600          5.6    830.59108    1002.4341    21003.202 
    5700          5.7    775.82655    1002.4341    23948.794 
    5800          5.8    584.47149    1002.4341    23807.936 
    5900          5.9    578.59769    1002.4341    22304.931 
    6000            6    667.16265    1002.4341    23412.142 
    6100          6.1    819.63714    1002.4341    27266.551 
    6200          6.2    775.55088    1002.4341    30146.197 
    6300          6.3    692.01064    1002.4341     25501.25 
    6400          6.4    684.71399    1002.4341    23965.747 
    6500          6.5    771.48735    1002.4341    17674.981 
    6600          6.6    675.58391    1002.4341    16823.523 
    6700          6.7    685.15285    1002.4341    16637.693 
    6800          6.8    753.27324    1002.4341    20298.388 
    6900          6.9     666.0713    1002.4341    28913.977 
    7000            7    732.74758    1002.4341    23657.545 
    7100          7.1    649.60622    1002.4341    20215.107 
    7200          7.2    652.45137    1002.4341    17215.239 
    7300          7.3    616.87961    1002.4341    18337.553 
    7400          7.4    714.64642    1002.4341    23183.545 
    7500          7.5    674.17379    1002.4341    29089.277 
    7600          7.6    808.39308    1002.4341    25637.041 
    7700          7.7    800.32064    1002.4341    22815.935 
    7800          7.8    597.16732    1002.4341     20678.93 
    7900          7.9    622.57229    1002.4341    20391.782 
    8000            8    552.63212    1002.4341    24878.193 
    8100          8.1    675.21299    1002.4341    24689.104 
    8200          8.2    713.48522    1002.4341    27961.648 
    8300          8.3    781.19079    1002.4341    18617.572 
    8400          8.4    681.74866    1002.4341    14941.903 
    8500          8.5    596.65648    1002.4341    16084.925 
    8600          8.6    560.07398    1002.4341     19206.35 
    8700          8.7    662.76518    1002.4341    22849.774 
    8800          8.8    685.50595    1002.4341    26061.575 
    8900          8.9    699.84946    1002.4341    30197.086 
    9000            9    910.37581    1002.4341    22252.364 
    9100          9.1    633.24463    1002.4341    23172.273 
    9200          9.2    690.84317    1002.4341    20442.931 
    9300          9.3    666.72529    1002.4341    25308.061 
    9400          9.4    851.50721    1002.4341    22554.394 
    9500          9.5    664.56671    1002.4341    22822.527 
    9600          9.6    626.70149    1002.4341     20692.12 
    9700          9.7    677.54294    1002.4341    18822.884 
    9800          9.8    600.10485    1002.4341     22153.14 
    9900          9.9    735.81348    1002.4341    23519.186 
   10000           10    771.63899    1002.4341    26433.445 
Loop time of 190.381 on 1 procs for 9000 steps with 64 atoms

Performance: 4.084 ns/day, 5.876 hours/ns, 47.274 timesteps/s
100.0% CPU use with 1 MPI tasks x no OpenMP threads

MPI task timing breakdown:
Section |  min time  |  avg time  |  max time  |%varavg| %total
---------------------------------------------------------------
Pair    | 190.29     | 190.29     | 190.29     |   0.0 | 99.95
Neigh   | 0.034281   | 0.034281   | 0.034281   |   0.0 |  0.02
Comm    | 0.031594   | 0.031594   | 0.031594   |   0.0 |  0.02
Output  | 0.0005888  | 0.0005888  | 0.0005888  |   0.0 |  0.00
Modify  | 0.016736   | 0.016736   | 0.016736   |   0.0 |  0.01
Other   |            | 0.006877   |            |       |  0.00

Nlocal:        64.0000 ave          64 max          64 min
Histogram: 1 0 0 0 0 0 0 0 0 0
Nghost:        886.000 ave         886 max         886 min
Histogram: 1 0 0 0 0 0 0 0 0 0
Neighs:         0.00000 ave           0 max           0 min
Histogram: 1 0 0 0 0 0 0 0 0 0
FullNghs:      5826.00 ave        5826 max        5826 min
Histogram: 1 0 0 0 0 0 0 0 0 0

Total # of neighbors = 5826
Ave neighs/atom = 91.031250
Neighbor list builds = 162
Dangerous builds = 0
System init for write_data ...
Total wall time: 0:03:31
