LAMMPS data file via write_data, version 29 Sep 2021, timestep = 10000

64 atoms
1 atom types

0 10.560000000000285 xlo xhi
0 9.145228263963919 ylo yhi
0 10.38 zlo zhi
0 0 0 xy xz yz

Masses

1 65.38

Atoms # atomic

1 1 1.3791773680067434 5.318936933384998 3.6890035102124448 0 0 0
2 1 1.1519366986851631 5.402775714617278 9.37005410015509 0 0 0
3 1 0.03709505833238385 7.432207136537435 3.414077317922321 0 0 0
4 1 10.527161317307982 7.31015679933089 9.111443292520095 -1 0 0
5 1 6.629801014505976 0.55124254046698 4.276401975631665 0 0 0
6 1 6.604314612742113 0.664518050557723 9.04368258977601 0 0 0
7 1 5.5672119154194055 3.045733345165731 4.024850584717086 0 0 0
8 1 5.042246146458366 3.125315715679739 8.67383826251831 0 0 0
9 1 1.4596057516125294 0.5971741166493797 3.776550624179855 0 0 0
10 1 1.4281481754652166 0.5713560846464624 8.98859379084289 0 0 0
11 1 0.21991300273938746 2.973840337714027 4.125817363109446 0 0 0
12 1 10.371833543302117 2.841535795035901 9.218594058976603 -1 0 0
13 1 4.219730858888676 0.8342607753517964 3.91616940045898 0 0 0
14 1 4.074088457796146 0.7999628911626471 8.931876842643314 0 0 0
15 1 3.0377640446817176 3.128549958430982 4.170979517206817 0 0 0
16 1 2.3475677127890284 3.100860324534514 9.355827753894678 0 0 0
17 1 6.59499241635838 5.344840789745819 3.9949562845902733 0 0 0
18 1 6.442325971319904 5.3421571023525996 9.126054334289169 0 0 0
19 1 5.276854173097276 7.382429653245397 4.345571784649235 0 0 0
20 1 5.010998645658514 7.745509222416918 9.120677718382739 0 0 0
21 1 9.053410538118596 5.08865352910747 3.6130352557490135 0 0 0
22 1 9.163224077335759 5.193810472458499 9.294156636662287 0 0 0
23 1 7.821921428941635 7.530704255343067 3.5573738065530294 0 0 0
24 1 7.970313408802233 7.473564615084173 8.836980469431793 0 0 0
25 1 4.009573414820256 5.491906379748571 3.7944829685207844 0 0 0
26 1 3.8359524060228667 5.314349495716749 9.343706931592987 0 0 0
27 1 2.664151249747742 7.523613871823425 3.811628060292822 0 0 0
28 1 2.346315859938437 7.588679463627466 9.305784454617005 0 0 0
29 1 9.505410128646737 0.9166503380612872 3.392245126514076 0 0 0
30 1 9.20899111570992 0.5792248471359784 9.205789692729288 0 0 0
31 1 8.079133978420112 2.966640667159437 4.1495761004765 0 0 0
32 1 7.853097120434784 3.252421529126492 9.328562388460373 0 0 0
33 1 5.020796863766615 1.491977543946451 0.8095988672386767 0 0 0
34 1 5.042326590032725 1.5964051984352225 6.011050045608022 0 0 0
35 1 4.308898486936043 3.774593805093357 1.5827258790563226 0 0 0
36 1 4.024240204434161 4.103038691047044 6.631313234049246 0 0 0
37 1 2.6240939676998987 6.170171877591531 1.3352013293684981 0 0 0
38 1 2.6784919890623873 6.35050188961426 6.742102055929564 0 0 0
39 1 1.2667823818987967 8.674706786319174 1.2405053875791427 0 0 0
40 1 1.1832099091019328 8.483161599041111 6.564839821059883 0 0 0
41 1 0.047070955724136485 1.5943192461333473 1.225110622116983 0 0 0
42 1 10.490926392651518 1.681424197609833 6.292616651965572 -1 0 0
43 1 2.588951452828861 1.761984215306439 1.5514173037607535 0 0 0
44 1 2.471283971440051 1.5079417178792187 6.611585358843124 0 0 0
45 1 1.1696018676950366 3.835527273577543 1.3023092740050854 0 0 0
46 1 1.473498041475587 3.9352256638964254 6.915623846371331 0 0 0
47 1 0.09393033764639189 6.255508826541795 1.2600870119970888 0 0 0
48 1 0.10698463857969975 5.643358038215897 5.8840349575411794 0 0 0
49 1 9.361678857722614 3.6558658222585594 1.2103333174147906 0 0 0
50 1 9.261022312015601 3.737628153972162 6.801088558998929 0 0 0
51 1 7.840570638096596 6.194366738903526 1.4687092465234406 0 0 0
52 1 8.027404065638633 6.056393636939944 6.270888685835743 0 0 0
53 1 6.476263409051922 8.546516373017916 0.9710917514658157 0 0 0
54 1 6.788315669575724 8.353915856963317 6.626735549328456 0 0 0
55 1 9.157636954444971 8.298447996270934 1.439968800148719 0 0 0
56 1 9.445202229113624 8.276921583180096 6.078118363920969 0 0 0
57 1 7.944931612216337 1.486152966841546 1.2405967244967304 0 0 0
58 1 8.120212012556324 1.6487617928863936 6.328040779610139 0 0 0
59 1 6.787094906925131 3.8907496404545348 1.5403830244338097 0 0 0
60 1 6.697509207798306 3.883511861195501 6.9058368834811725 0 0 0
61 1 5.23431914954552 6.108198444534252 0.8740506703329448 0 0 0
62 1 5.293851208286286 6.371833670261875 6.779493090672392 0 0 0
63 1 3.6903742129791186 8.341040280990162 1.3559895617577016 0 0 0
64 1 3.7082638909636145 8.503570306508166 6.0002103468077514 0 0 0

Velocities

1 0.6937835559673213 0.36112766304177807 -0.16361457770381224
2 -2.847846938597098 -4.9318857157619345 -9.133910986166702
3 -3.0054146049307517 -0.8417854610969497 -2.818117831449706
4 2.4908721666590306 1.5043932374379174 1.4594800429975279
5 0.5745677501324546 1.6157758903472899 -3.234165070172627
6 -7.014526935045966 -1.7598218214083443 -3.150261828914231
7 7.035510258511267 3.2665884656821116 0.9126799459849495
8 0.6655644691767622 -3.2557203907578596 -1.2124123903533652
9 -2.787390401793514 1.9044608098804985 0.10298640528688383
10 5.5949069234926565 3.569956917599077 -1.7966423396818
11 -7.2482893903878285 1.958279564869261 -1.3749641551214453
12 0.06346579646716352 -0.01338853567157973 -0.23713421171107096
13 2.8719921977211254 -0.40444355505067336 0.3609931403925773
14 -1.019582384173079 -1.8369228013250212 -0.23661934493285358
15 -1.7991005023920617 1.2865426400479931 0.20492604125377986
16 -0.03235242340795185 -1.9117216588989885 2.1589599231702166
17 -0.6371732034797334 3.1503129688584495 -0.30016942666645935
18 -2.9032132476047168 -5.408987318015721 -1.587252487768871
19 2.582341485783652 -3.131907322564634 0.5576823107644548
20 1.8124922618206003 0.4841151300380549 -0.3162134266182069
21 -2.4319434130334123 7.040570084522683 -0.9080471227889229
22 -3.115298629922328 -1.783870861374804 2.440650243689833
23 2.631936769126523 1.596834404796348 0.5281667820800482
24 3.771857350021927 -0.23755647047903988 -2.5743919923969174
25 -4.030883082113536 -0.6072441793365642 -2.8820962820716383
26 -2.771989891839268 -1.6593716561239293 5.265484461323194
27 -2.180495588293676 1.0712669031147934 3.6085754911524095
28 -2.5232130459009587 -2.8059157767965663 1.7512905763006081
29 9.426593431649879 -2.9725378210774656 1.6542872339190138
30 -1.4007759662615433 -4.978218032432782 6.414565530952335
31 -0.5974637498459376 3.555624226933839 1.0403762751539674
32 -1.3926192282916618 -0.4224833601190308 -0.8775121609892357
33 -0.5317086280782067 1.2834303049476323 -6.505457306391425
34 8.033674366692397 -3.352166471476166 1.565619293969943
35 5.563124872731464 0.4903482113860708 1.4674749626103338
36 -3.0600063816181375 -1.8335848901484206 -4.935519116789233
37 -1.7204578210335244 3.760306953381918 1.66183493853609
38 1.922215333750432 -1.3391069306509145 5.656642766071286
39 -7.7628260251015115 0.45308661267971584 -3.8876420406360097
40 -0.927788825897905 1.3243898445571092 0.7156709061099649
41 3.3068545529722924 2.544617038471505 -0.06398188107378765
42 4.9964854771785525 1.1202672340074822 -1.9832383306526797
43 4.165029365676159 0.5176029324572602 -2.661427515176615
44 -3.9995046704706962 -0.19986640299907907 -2.229126694635196
45 -0.4420288766389075 4.861746419372318 1.3005290581797897
46 -4.000462652360955 -1.4668841017459013 0.9874803261135041
47 2.215761400059693 -0.44929328832743615 -1.5329066476740871
48 -0.3427155463621514 2.0912971300013976 5.09949600143038
49 5.910247757172048 3.0932182117978373 -2.2604731525520756
50 -1.1687719334510702 0.4166659361240743 3.374622422221112
51 -1.8183790762712693 -0.19806371938598144 4.37010626132185
52 1.6133367590108065 2.3109301770453587 1.7304685586120874
53 5.154345561293362 -2.6796804326866597 -1.7720881657336744
54 0.7989245905154018 -4.7402391128589 0.30578385663379204
55 1.6528265516550396 -1.1736286318052889 2.433272478472583
56 -1.1491486273786695 -2.897540110400975 3.6945604659373976
57 -4.068265332246702 -4.4092786852082355 -2.2869397647603913
58 -2.871514542992194 4.294059938342154 -0.3452596281946119
59 -5.938809114791239 4.26132116019681 -4.104228944460132
60 0.07463666417243524 -1.6847572622964397 4.923644608703997
61 -2.9860489780983785 -3.7967552187393636 -1.096926720551982
62 1.7563274380078386 1.9180712650282883 2.9475157098978615
63 0.9439312841335233 -1.5771501040584128 2.0090524690891662
64 4.204403268554868 3.6545698241130347 -4.236137943543183
