LAMMPS (29 Sep 2021 - Update 1)
Reading data file ...
  triclinic box = (0.0000000 0.0000000 0.0000000) to (10.480000 9.0759462 10.340000) with tilt (0.0000000 0.0000000 0.0000000)
  1 by 1 by 1 MPI processor grid
  reading atoms ...
  64 atoms
  read_data CPU = 0.001 seconds
Neighbor list info ...
  update every 1 steps, delay 0 steps, check yes
  max neighbors/atom: 2000, page size: 100000
  master list distance cutoff = 7
  ghost atom cutoff = 7
  binsize = 3.5, bins = 3 3 3
  1 neighbor lists, perpetual/occasional/extra = 1 0 0
  (1) pair mlip, perpetual
      attributes: full, newton on
      pair build: full/bin/atomonly
      stencil: full/bin/3d
      bin: standard
Setting up Verlet run ...
  Unit style    : metal
  Current step  : 0
  Time step     : 0.001
Per MPI rank memory allocation (min/avg/max) = 3.089 | 3.089 | 3.089 Mbytes
Step Time Temp Volume Press 
       0            0         1380    983.49858    7879.7165 
       1        0.001    1378.9772    983.49858    7914.4732 
       2        0.002    1375.9164    983.49858    8018.5139 
       3        0.003    1370.8377    983.49858    8190.0229 
       4        0.004    1363.7727    983.49858    8420.8484 
       5        0.005    1354.7636    983.49858    8708.7517 
       6        0.006    1343.8611    983.49858    9053.3005 
       7        0.007    1331.1239    983.49858    9452.9054 
       8        0.008    1316.6184    983.49858    9910.0068 
       9        0.009    1300.4186    983.49858    10423.611 
      10         0.01     1282.606    983.49858    10992.629 
Loop time of 0.212418 on 1 procs for 10 steps with 64 atoms

Performance: 4.067 ns/day, 5.901 hours/ns, 47.077 timesteps/s
95.6% CPU use with 1 MPI tasks x no OpenMP threads

MPI task timing breakdown:
Section |  min time  |  avg time  |  max time  |%varavg| %total
---------------------------------------------------------------
Pair    | 0.21229    | 0.21229    | 0.21229    |   0.0 | 99.94
Neigh   | 0          | 0          | 0          |   0.0 |  0.00
Comm    | 3.4884e-05 | 3.4884e-05 | 3.4884e-05 |   0.0 |  0.02
Output  | 4.0577e-05 | 4.0577e-05 | 4.0577e-05 |   0.0 |  0.02
Modify  | 3.8406e-05 | 3.8406e-05 | 3.8406e-05 |   0.0 |  0.02
Other   |            | 1.133e-05  |            |       |  0.01

Nlocal:        64.0000 ave          64 max          64 min
Histogram: 1 0 0 0 0 0 0 0 0 0
Nghost:        886.000 ave         886 max         886 min
Histogram: 1 0 0 0 0 0 0 0 0 0
Neighs:         0.00000 ave           0 max           0 min
Histogram: 1 0 0 0 0 0 0 0 0 0
FullNghs:      6272.00 ave        6272 max        6272 min
Histogram: 1 0 0 0 0 0 0 0 0 0

Total # of neighbors = 6272
Ave neighs/atom = 98.000000
Neighbor list builds = 0
Dangerous builds = 0
Setting up Verlet run ...
  Unit style    : metal
  Current step  : 10
  Time step     : 0.001
Per MPI rank memory allocation (min/avg/max) = 3.089 | 3.089 | 3.089 Mbytes
Step Time Temp Volume Press 
      10         0.01     1282.606    983.49858    10992.629 
      11        0.011    1263.2693    983.49858    11615.232 
      12        0.012    1242.5046    983.49858    12289.172 
      13        0.013    1220.4146    983.49858    13011.266 
      14        0.014    1197.1072    983.49858    13774.784 
      15        0.015    1172.6953    983.49858    14575.861 
      16        0.016    1147.2977    983.49858    15411.642 
      17        0.017    1121.0387    983.49858    16278.582 
      18        0.018    1094.0471    983.49858     17172.88 
      19        0.019     1066.455    983.49858    18087.799 
      20         0.02    1038.3959    983.49858    19013.888 
      21        0.021    1010.0056    983.49858    19952.299 
      22        0.022    981.42228    983.49858    20899.423 
      23        0.023    952.78466    983.49858    21851.013 
      24        0.024    924.23064    983.49858    22802.671 
      25        0.025    895.89612    983.49858     23748.26 
      26        0.026    867.91422    983.49858     24685.86 
      27        0.027    840.41467    983.49858     25611.79 
      28        0.028    813.52248    983.49858    26523.118 
      29        0.029    787.35673    983.49858    27415.073 
      30         0.03    762.02901    983.49858    28280.967 
      31        0.031    737.64259    983.49858    29116.574 
      32        0.032     714.2921    983.49858    29920.085 
      33        0.033    692.06292    983.49858    30688.257 
      34        0.034    671.03042    983.49858    31419.685 
      35        0.035    651.25937    983.49858    32111.279 
      36        0.036    632.80297    983.49858    32758.452 
      37        0.037     615.7032    983.49858    33363.991 
      38        0.038    599.99095    983.49858    33927.355 
      39        0.039    585.68541    983.49858    34446.908 
      40         0.04    572.79396    983.49858     34920.69 
      41        0.041    561.31263    983.49858    35348.623 
      42        0.042    551.22673    983.49858    35731.953 
      43        0.043    542.51117    983.49858    36070.666 
      44        0.044    535.13067    983.49858        36362 
      45        0.045    529.04089    983.49858    36610.291 
      46        0.046    524.18956    983.49858    36817.722 
      47        0.047    520.51703    983.49858     36986.87 
      48        0.048    517.95708    983.49858    37118.384 
      49        0.049    516.43796    983.49858    37213.783 
      50         0.05    515.88334    983.49858    37274.166 
      51        0.051    516.21352    983.49858    37303.117 
      52        0.052    517.34623    983.49858    37300.298 
      53        0.053    519.19762    983.49858     37269.75 
      54        0.054    521.68314    983.49858     37212.17 
      55        0.055    524.71826    983.49858    37133.093 
      56        0.056    528.21977    983.49858    37034.298 
      57        0.057    532.10639    983.49858     36917.37 
      58        0.058    536.29942    983.49858    36786.306 
      59        0.059    540.72292    983.49858    36640.466 
      60         0.06    545.30404    983.49858    36481.773 
      61        0.061    549.97424    983.49858    36315.986 
      62        0.062    554.66957    983.49858     36144.97 
      63        0.063    559.33046    983.49858    35971.293 
      64        0.064      563.902    983.49858     35796.97 
      65        0.065    568.33425    983.49858    35624.315 
      66        0.066    572.58238    983.49858    35454.618 
      67        0.067    576.60641    983.49858    35289.648 
      68        0.068    580.37103    983.49858    35130.108 
      69        0.069     583.8454    983.49858    34978.193 
      70         0.07    587.00314    983.49858    34834.421 
      71        0.071    589.82154    983.49858    34699.474 
      72        0.072    592.28187    983.49858    34574.916 
      73        0.073    594.36997    983.49858    34459.999 
      74        0.074     596.0756    983.49858    34356.408 
      75        0.075    597.39187    983.49858    34263.956 
      76        0.076    598.31498    983.49858    34183.207 
      77        0.077    598.84406    983.49858    34114.764 
      78        0.078    598.98084    983.49858    34057.851 
      79        0.079    598.72941    983.49858    34013.185 
      80         0.08     598.0961    983.49858    33980.199 
      81        0.081    597.08915    983.49858    33959.528 
      82        0.082    595.71889    983.49858    33951.373 
      83        0.083    593.99763    983.49858    33956.036 
      84        0.084    591.93956    983.49858    33971.828 
      85        0.085    589.56042    983.49858    33999.022 
      86        0.086    586.87712    983.49858    34036.729 
      87        0.087    583.90766    983.49858    34082.689 
      88        0.088    580.67119    983.49858    34138.732 
      89        0.089    577.18846    983.49858    34205.195 
      90         0.09    573.48166    983.49858    34280.986 
      91        0.091     569.5741    983.49858    34364.756 
      92        0.092    565.49027    983.49858    34456.659 
      93        0.093    561.25591    983.49858    34555.751 
      94        0.094    556.89788    983.49858      34661.4 
      95        0.095    552.44402    983.49858    34770.283 
      96        0.096    547.92278    983.49858    34879.271 
      97        0.097     543.3635    983.49858    34989.242 
      98        0.098    538.79637    983.49858    35100.784 
      99        0.099    534.25202    983.49858    35213.945 
     100          0.1     529.7615    983.49858    35327.843 
Loop time of 1.86499 on 1 procs for 90 steps with 64 atoms

Performance: 4.169 ns/day, 5.756 hours/ns, 48.258 timesteps/s
99.9% CPU use with 1 MPI tasks x no OpenMP threads

MPI task timing breakdown:
Section |  min time  |  avg time  |  max time  |%varavg| %total
---------------------------------------------------------------
Pair    | 1.8639     | 1.8639     | 1.8639     |   0.0 | 99.94
Neigh   | 0.00023407 | 0.00023407 | 0.00023407 |   0.0 |  0.01
Comm    | 0.00030946 | 0.00030946 | 0.00030946 |   0.0 |  0.02
Output  | 0.00034862 | 0.00034862 | 0.00034862 |   0.0 |  0.02
Modify  | 0.00016645 | 0.00016645 | 0.00016645 |   0.0 |  0.01
Other   |            | 7.503e-05  |            |       |  0.00

Nlocal:        64.0000 ave          64 max          64 min
Histogram: 1 0 0 0 0 0 0 0 0 0
Nghost:        880.000 ave         880 max         880 min
Histogram: 1 0 0 0 0 0 0 0 0 0
Neighs:         0.00000 ave           0 max           0 min
Histogram: 1 0 0 0 0 0 0 0 0 0
FullNghs:      6070.00 ave        6070 max        6070 min
Histogram: 1 0 0 0 0 0 0 0 0 0

Total # of neighbors = 6070
Ave neighs/atom = 94.843750
Neighbor list builds = 1
Dangerous builds = 0
Setting up Verlet run ...
  Unit style    : metal
  Current step  : 100
  Time step     : 0.001
Per MPI rank memory allocation (min/avg/max) = 3.089 | 3.089 | 3.089 Mbytes
Step Time Temp Volume Press 
     100          0.1     529.7615    983.49858    35327.843 
     110         0.11    494.43752    983.49858    36286.046 
     120         0.12    491.68413    983.49858    36475.611 
     130         0.13    522.12612    983.49858     35744.51 
     140         0.14    565.63121    983.49858     34627.65 
     150         0.15    604.87129    983.49858     33671.44 
     160         0.16    633.02619    983.49858    33131.232 
     170         0.17    647.86901    983.49858    33068.074 
     180         0.18    650.98643    983.49858    33335.218 
     190         0.19    650.23791    983.49858    33677.958 
     200          0.2    654.66894    983.49858    33831.513 
     210         0.21    664.68657    983.49858    33839.831 
     220         0.22    670.54218    983.49858    33975.634 
     230         0.23    662.33102    983.49858    34516.605 
     240         0.24    642.70923    983.49858     35407.19 
     250         0.25    626.81296    983.49858    36200.879 
     260         0.26    629.02742    983.49858    36489.154 
     270         0.27     651.5103    983.49858    36172.158 
     280         0.28    683.33899    983.49858    35492.406 
     290         0.29    710.30813    983.49858    34896.467 
     300          0.3    723.76699    983.49858    34774.907 
     310         0.31    719.86218    983.49858    35248.131 
     320         0.32    701.87904    983.49858    36145.856 
     330         0.33    686.06798    983.49858    37026.386 
     340         0.34    688.96993    983.49858    37322.807 
     350         0.35    708.79405    983.49858    36885.736 
     360         0.36    733.31728    983.49858    36156.567 
     370         0.37    756.74084    983.49858    35389.367 
     380         0.38    778.64473    983.49858    34632.572 
     390         0.39    799.08665    983.49858    33935.534 
     400          0.4    812.37971    983.49858    33561.166 
     410         0.41     804.3333    983.49858    33841.178 
     420         0.42    764.16519    983.49858    35056.617 
     430         0.43    699.68516    983.49858     36877.19 
     440         0.44    637.37984    983.49858    38543.158 
     450         0.45    607.50533    983.49858    39257.861 
     460         0.46    622.06967    983.49858    38555.564 
     470         0.47    663.50839    983.49858     36946.56 
     480         0.48    699.97351    983.49858    35485.116 
     490         0.49    708.06007    983.49858    34918.516 
     500          0.5     682.0603    983.49858    35402.566 
     510         0.51    636.34033    983.49858    36524.896 
     520         0.52    598.62943    983.49858    37543.927 
     530         0.53    588.62007    983.49858    37842.427 
     540         0.54    601.84326    983.49858    37545.844 
     550         0.55    621.31529    983.49858    36973.545 
     560         0.56    637.82411    983.49858    36425.238 
     570         0.57    651.93106    983.49858    35957.835 
     580         0.58    664.38244    983.49858    35635.408 
     590         0.59     671.4555    983.49858    35519.206 
     600          0.6    666.70351    983.49858    35713.647 
     610         0.61    647.35663    983.49858    36142.128 
     620         0.62    622.25426    983.49858    36562.747 
     630         0.63    608.77801    983.49858    36587.978 
     640         0.64    616.56876    983.49858    36039.674 
     650         0.65     638.8213    983.49858    35124.084 
     660         0.66    659.53175    983.49858     34267.17 
     670         0.67    668.43227    983.49858    33865.174 
     680         0.68    671.27934    983.49858    33814.636 
     690         0.69    672.45233    983.49858    33973.713 
     700          0.7    665.89242    983.49858    34337.457 
     710         0.71    657.24085    983.49858    34716.384 
     720         0.72    661.55416    983.49858    34767.214 
     730         0.73    680.01719    983.49858    34405.608 
     740         0.74    698.97059    983.49858    34011.051 
     750         0.75    709.72359    983.49858    33656.551 
     760         0.76    719.09805    983.49858    33214.779 
     770         0.77    735.56236    983.49858     32530.81 
     780         0.78     754.3707    983.49858    31832.352 
     790         0.79    762.04428    983.49858    31436.916 
     800          0.8    750.79748    983.49858    31668.315 
     810         0.81    728.15585    983.49858     32261.48 
     820         0.82    711.68145    983.49858    32689.378 
     830         0.83    712.48678    983.49858    32611.267 
     840         0.84    723.69092    983.49858    32123.502 
     850         0.85    727.00938    983.49858    31777.909 
     860         0.86    711.22161    983.49858    31867.277 
     870         0.87    680.68332    983.49858    32316.726 
     880         0.88    649.99043    983.49858    32732.061 
     890         0.89    630.88593    983.49858     32845.63 
     900          0.9    620.16527    983.49858    32755.548 
     910         0.91     608.7901    983.49858    32646.026 
     920         0.92    602.70282    983.49858     32342.09 
     930         0.93     616.3113    983.49858    31470.031 
     940         0.94     652.0541    983.49858    30025.422 
     950         0.95     693.1292    983.49858    28483.362 
     960         0.96    713.34337    983.49858    27622.743 
     970         0.97    698.47303    983.49858    27897.492 
     980         0.98    655.22021    983.49858    29116.845 
     990         0.99    604.23178    983.49858    30567.763 
    1000            1    570.92974    983.49858    31488.068 
Loop time of 18.2792 on 1 procs for 900 steps with 64 atoms

Performance: 4.254 ns/day, 5.642 hours/ns, 49.236 timesteps/s
100.0% CPU use with 1 MPI tasks x no OpenMP threads

MPI task timing breakdown:
Section |  min time  |  avg time  |  max time  |%varavg| %total
---------------------------------------------------------------
Pair    | 18.27      | 18.27      | 18.27      |   0.0 | 99.95
Neigh   | 0.0034688  | 0.0034688  | 0.0034688  |   0.0 |  0.02
Comm    | 0.003121   | 0.003121   | 0.003121   |   0.0 |  0.02
Output  | 0.00039806 | 0.00039806 | 0.00039806 |   0.0 |  0.00
Modify  | 0.0016077  | 0.0016077  | 0.0016077  |   0.0 |  0.01
Other   |            | 0.0006868  |            |       |  0.00

Nlocal:        64.0000 ave          64 max          64 min
Histogram: 1 0 0 0 0 0 0 0 0 0
Nghost:        880.000 ave         880 max         880 min
Histogram: 1 0 0 0 0 0 0 0 0 0
Neighs:         0.00000 ave           0 max           0 min
Histogram: 1 0 0 0 0 0 0 0 0 0
FullNghs:      6074.00 ave        6074 max        6074 min
Histogram: 1 0 0 0 0 0 0 0 0 0

Total # of neighbors = 6074
Ave neighs/atom = 94.906250
Neighbor list builds = 15
Dangerous builds = 0
Setting up Verlet run ...
  Unit style    : metal
  Current step  : 1000
  Time step     : 0.001
Per MPI rank memory allocation (min/avg/max) = 3.089 | 3.089 | 3.089 Mbytes
Step Time Temp Volume Press 
    1000            1    570.92974    983.49858    31488.068 
    1100          1.1    522.05215    983.49858    36856.439 
    1200          1.2     824.6443    983.49858    34403.827 
    1300          1.3    734.94563    983.49858    34733.457 
    1400          1.4    640.37923    983.49858    33239.136 
    1500          1.5    681.09692    983.49858    32597.428 
    1600          1.6     677.7203    983.49858    33157.391 
    1700          1.7    711.49077    983.49858     37607.16 
    1800          1.8    737.47293    983.49858    39035.591 
    1900          1.9    667.13483    983.49858    37126.504 
    2000            2    649.02448    983.49858    33773.676 
    2100          2.1    702.71772    983.49858    26999.786 
    2200          2.2    523.91068    983.49858    27074.873 
    2300          2.3    656.29733    983.49858    26139.002 
    2400          2.4    593.14613    983.49858    33977.718 
    2500          2.5    721.73087    983.49858    33959.489 
    2600          2.6    748.89565    983.49858    33907.278 
    2700          2.7    654.97918    983.49858    33721.319 
    2800          2.8    695.48944    983.49858     31068.05 
    2900          2.9    654.70085    983.49858    34103.146 
    3000            3    730.79021    983.49858    37363.579 
    3100          3.1    759.27371    983.49858    37623.915 
    3200          3.2    549.86107    983.49858    39166.863 
    3300          3.3    647.11133    983.49858    33512.837 
    3400          3.4    780.25363    983.49858    29123.425 
    3500          3.5    629.84907    983.49858    35492.055 
    3600          3.6    721.17679    983.49858    39256.278 
    3700          3.7    866.65522    983.49858    38469.689 
    3800          3.8    709.51236    983.49858    36971.903 
    3900          3.9    768.73972    983.49858    31921.833 
    4000            4    642.54887    983.49858    35004.028 
    4100          4.1    668.15847    983.49858    33817.833 
    4200          4.2    672.27451    983.49858    32623.981 
    4300          4.3    743.78013    983.49858    30034.885 
    4400          4.4    718.36406    983.49858    34852.805 
    4500          4.5    778.73755    983.49858    37770.945 
    4600          4.6    795.42136    983.49858    38532.961 
    4700          4.7    710.39119    983.49858    38740.706 
    4800          4.8    644.06142    983.49858    33975.342 
    4900          4.9    675.16852    983.49858    28823.325 
    5000            5    692.12805    983.49858    29000.357 
    5100          5.1    576.79764    983.49858     38425.45 
    5200          5.2     773.1961    983.49858    38246.262 
    5300          5.3    733.31437    983.49858    37966.518 
    5400          5.4    658.03571    983.49858    36316.701 
    5500          5.5    621.02796    983.49858    35009.269 
    5600          5.6    649.82314    983.49858    32964.846 
    5700          5.7    689.38914    983.49858     34174.36 
    5800          5.8    678.56982    983.49858    34418.757 
    5900          5.9    629.43854    983.49858    36736.278 
    6000            6     917.5055    983.49858    36019.358 
    6100          6.1    767.90812    983.49858    39925.563 
    6200          6.2     720.4574    983.49858    35616.731 
    6300          6.3    697.36356    983.49858    31623.735 
    6400          6.4    620.65001    983.49858    33180.415 
    6500          6.5    682.97767    983.49858    32274.265 
    6600          6.6    753.23746    983.49858    39719.099 
    6700          6.7    887.67064    983.49858    41639.141 
    6800          6.8    763.96491    983.49858    44882.449 
    6900          6.9    763.88504    983.49858    37614.278 
    7000            7     764.3067    983.49858    31571.993 
    7100          7.1     629.6991    983.49858    31493.599 
    7200          7.2    512.76842    983.49858    35717.917 
    7300          7.3    626.24736    983.49858     37373.73 
    7400          7.4     723.9707    983.49858    37718.603 
    7500          7.5    758.44333    983.49858    35183.309 
    7600          7.6    690.44688    983.49858    34462.247 
    7700          7.7    680.10667    983.49858    30872.514 
    7800          7.8    593.31378    983.49858    29852.794 
    7900          7.9    674.95482    983.49858    29667.841 
    8000            8    705.92859    983.49858    36103.958 
    8100          8.1    699.31866    983.49858    38881.352 
    8200          8.2     789.7329    983.49858    34361.539 
    8300          8.3    576.85642    983.49858     37040.97 
    8400          8.4     663.2121    983.49858    29344.806 
    8500          8.5    533.34389    983.49858    32271.969 
    8600          8.6    630.42189    983.49858    32980.474 
    8700          8.7    583.42559    983.49858    41662.122 
    8800          8.8    830.13516    983.49858    35484.499 
    8900          8.9    741.99482    983.49858    37874.819 
    9000            9    665.56118    983.49858    32800.044 
    9100          9.1    623.71035    983.49858    32503.622 
    9200          9.2    631.90667    983.49858    34204.419 
    9300          9.3    773.52678    983.49858     31456.83 
    9400          9.4    661.42039    983.49858    35439.198 
    9500          9.5    768.30096    983.49858    34661.079 
    9600          9.6    711.74382    983.49858    40907.695 
    9700          9.7    734.55161    983.49858    41386.666 
    9800          9.8    607.44625    983.49858    36509.757 
    9900          9.9     721.3602    983.49858    29872.454 
   10000           10    707.81432    983.49858    31420.825 
Loop time of 194.634 on 1 procs for 9000 steps with 64 atoms

Performance: 3.995 ns/day, 6.007 hours/ns, 46.241 timesteps/s
100.0% CPU use with 1 MPI tasks x no OpenMP threads

MPI task timing breakdown:
Section |  min time  |  avg time  |  max time  |%varavg| %total
---------------------------------------------------------------
Pair    | 194.54     | 194.54     | 194.54     |   0.0 | 99.95
Neigh   | 0.038252   | 0.038252   | 0.038252   |   0.0 |  0.02
Comm    | 0.03362    | 0.03362    | 0.03362    |   0.0 |  0.02
Output  | 0.00056613 | 0.00056613 | 0.00056613 |   0.0 |  0.00
Modify  | 0.016206   | 0.016206   | 0.016206   |   0.0 |  0.01
Other   |            | 0.00697    |            |       |  0.00

Nlocal:        64.0000 ave          64 max          64 min
Histogram: 1 0 0 0 0 0 0 0 0 0
Nghost:        886.000 ave         886 max         886 min
Histogram: 1 0 0 0 0 0 0 0 0 0
Neighs:         0.00000 ave           0 max           0 min
Histogram: 1 0 0 0 0 0 0 0 0 0
FullNghs:      6002.00 ave        6002 max        6002 min
Histogram: 1 0 0 0 0 0 0 0 0 0

Total # of neighbors = 6002
Ave neighs/atom = 93.781250
Neighbor list builds = 159
Dangerous builds = 0
System init for write_data ...
Total wall time: 0:03:35
