LAMMPS data file via write_data, version 29 Sep 2021, timestep = 10000

64 atoms
1 atom types

0 10.479999999999203 xlo xhi
0 9.075946231660229 ylo yhi
0 10.339999999999998 zlo zhi
0 0 0 xy xz yz

Masses

1 65.38

Atoms # atomic

1 1 1.508208595219632 5.409375376355326 3.7763667275093376 0 0 0
2 1 1.3014633240786846 5.241400964013713 8.791802496721411 0 0 0
3 1 0.10668417706634399 7.588976941228783 4.040551124332531 0 0 0
4 1 10.411197451377019 7.549410594291467 9.274363277663035 -1 0 0
5 1 6.661079563209943 0.5754318056770341 3.561231385452427 0 0 0
6 1 6.368235703991667 0.9687739787609796 8.645780370190938 0 0 0
7 1 5.264865547837102 3.065166247338823 3.8035297308864395 0 0 0
8 1 5.291451312527023 3.1195838303167425 8.855378807878068 0 0 0
9 1 1.177177804447189 0.6575704475639319 4.076224664292724 0 0 0
10 1 1.0983388774468958 0.8123314170558467 9.270680016689454 0 0 0
11 1 10.41174547162433 2.8837891308664148 3.938731973108201 -1 0 0
12 1 0.10499796022901814 3.186885262478614 8.594404273916057 0 0 0
13 1 3.8756691212373253 0.5924599065360128 3.8629021186528694 0 0 0
14 1 3.9601294746418816 0.9214322191956511 9.390758874115017 0 0 0
15 1 2.6789212036185517 2.8471340758821055 3.982198264591577 0 0 0
16 1 2.546673603432081 3.0425306130926115 9.037119142039785 0 0 0
17 1 6.70723208770748 5.2503513221571385 4.115577683855555 0 0 0
18 1 6.52788402131574 5.405639415772339 9.163362153580907 0 0 0
19 1 5.290511909793481 7.486616816150921 3.9915538679567564 0 0 0
20 1 5.204580623589504 7.8006356349228385 8.880900664631653 0 0 0
21 1 9.479523479130707 5.363820392143566 4.122630993870961 0 0 0
22 1 9.288850665467521 5.09454773404782 9.354556871736925 0 0 0
23 1 7.862086399045182 7.4373078615083 3.9571136270331304 0 0 0
24 1 7.811992713346949 7.50773482791364 9.494419643324843 0 0 0
25 1 4.191284509018391 5.185348557905141 3.893096700821329 0 0 0
26 1 4.01270112845396 5.419581063152413 9.407185790396728 0 0 0
27 1 2.703512071307974 7.512716949001184 3.7974311069498357 0 0 0
28 1 2.5311192061063523 7.689825651610705 9.299949683259012 0 0 0
29 1 9.213297159580115 0.7691966275456905 3.7439324554158366 0 0 0
30 1 9.212309675573124 0.6866996742393223 8.85803271344751 0 0 0
31 1 7.970326536409664 3.151193951704593 3.614955751731098 0 0 0
32 1 8.015251410811672 2.895649208510568 8.468148793544332 0 0 0
33 1 5.15838551422982 1.3634714980222613 1.6480755862318597 0 0 0
34 1 5.268932946088234 1.338188862410966 5.783974452917616 0 0 0
35 1 3.8195530013613026 3.811860517372366 1.5709748794241194 0 0 0
36 1 3.9619260202165467 3.7018796784453185 6.710539232924153 0 0 0
37 1 2.698774645958312 6.369974840424344 1.4012496431778876 0 0 0
38 1 2.7731261989432183 6.014923818854959 5.9230859303434755 0 0 0
39 1 1.2026502781014592 8.420257824482137 1.503434884002128 0 0 0
40 1 1.2923955336649704 8.168765184312617 6.5564621732226565 0 0 0
41 1 10.302158613936005 1.6243525305367108 1.1901018242807682 -1 0 0
42 1 10.338950241048932 1.362480827010438 6.50159023327926 -1 0 0
43 1 2.426892101526546 1.4129424624870621 1.3738680639878598 0 0 0
44 1 2.49351947359549 1.514942822761776 6.740617745514551 0 0 0
45 1 1.3303258264720699 4.0928146443281905 1.32862323611818 0 0 0
46 1 1.6417951486022897 3.8351697593267953 6.056997107094336 0 0 0
47 1 10.364727590330988 6.210521023591101 1.2418381664104907 -1 0 0
48 1 0.17392372518433186 5.867776694612999 6.489124303615958 0 0 0
49 1 9.034086317375847 3.9621275988073283 1.36760020494182 0 0 0
50 1 9.169196064689197 3.792813164485738 6.244330318117857 0 0 0
51 1 7.849702407483745 5.9454490292295255 1.1662649243779561 0 0 0
52 1 7.933892490092075 6.000677098250154 6.904389995284833 0 0 0
53 1 6.530374314073355 8.600189408483848 0.8840579126149332 0 0 0
54 1 6.49148804070155 8.113653751245986 6.539634080112115 0 0 0
55 1 9.163081637806332 8.349724276227665 1.610721653288729 0 0 0
56 1 9.083571631358007 8.233553017941786 6.3398328569678375 0 0 0
57 1 7.8386597859223075 1.4779924204111796 0.6076709759836674 0 0 0
58 1 7.714797456064329 1.3474384016938032 6.282332380857417 0 0 0
59 1 6.297502144753374 3.7447122483782986 1.2418059481674721 0 0 0
60 1 6.551591209956844 3.815443825742296 6.509193674514729 0 0 0
61 1 5.310207596718387 6.10657155419554 1.241619406052909 0 0 0
62 1 5.027590881309219 5.899941201617602 6.994969950917354 0 0 0
63 1 3.7184149478030615 8.501437866580396 1.3847939623087706 0 0 0
64 1 4.0885034259652455 8.309113061913653 6.475352543349096 0 0 0

Velocities

1 -1.2006095601432842 -0.7245395893211752 -0.3786314393720862
2 -3.420636086868022 -2.9981085200539006 1.737444442346371
3 0.8436363127020843 1.730762843370082 0.9827606072416464
4 -2.3178481259859263 -1.3739514858380304 -3.098931266168071
5 -2.440035323515281 -2.07767938803683 -2.3680907012919907
6 1.2980905550803956 0.6812991061995787 -0.7184279905904282
7 2.7189356508705056 5.587425382815298 2.3461153650492674
8 3.2797294499360556 -2.5907147964792867 0.03169262904037207
9 -2.1333212017044767 0.7117577152142456 -2.0609991922625697
10 -0.6181279229430127 -1.6282997481450392 -0.9220487392305582
11 0.3368465259843516 0.27676878890236506 0.8862906336524246
12 3.387015984807272 0.45355603052541926 1.75357268278168
13 0.7126000836448686 -1.6178191633316954 0.7082239304966186
14 0.9080886427702016 1.0977813086669774 1.5661684258876287
15 4.827071987451104 -1.5974849566087295 7.517936592773292
16 4.046421601707418 -4.835970939328142 -0.9329136303830723
17 1.4715659043503977 -0.47864057934912424 2.271932995727542
18 -5.678097403863606 2.2712374546882197 1.4266055098070904
19 2.435229184367478 -5.979890005733064 0.5940052913243982
20 0.36274338659402683 1.4794474945777358 -0.5295828199447796
21 -2.119385361776824 3.0838563388914144 -1.3359977073691616
22 -0.72871867219705 3.982929384977973 -8.64242308743326
23 -4.630606172601357 4.519194049334756 -0.6479119801841776
24 1.1275152668065802 -4.006521440707158 2.0534615515264836
25 4.773594286690335 10.410933814631827 0.5966177536973419
26 1.6225257579764956 3.186202200962169 -3.364844854343072
27 -0.820968930458297 -3.9181751996074166 3.601132369386171
28 1.0799198882834187 5.0499984537304785 1.946234950392215
29 2.8676574893228444 1.1278716013919123 -1.4564836058597799
30 -2.042039181950382 4.8189817326729925 -1.3470375623738604
31 -4.775239016477797 0.5601324802289871 0.6092358564398221
32 -5.459396732948716 1.8751389541603476 -1.1489345809522822
33 4.561684192320945 -3.944750701116923 -3.4963599183703864
34 3.3456100395862554 -1.2745416809863386 -0.9557284888394909
35 -0.06977536631106954 1.1322288620344025 4.933110027248187
36 -1.981506596529594 0.2315854571822924 -1.784190242551876
37 3.106566501033409 -2.7541837689549715 -2.6988138444440866
38 4.676951255528781 1.7945105862785715 -1.8625417729731903
39 -1.6663474051279443 0.6178228595593347 -3.2930949428428296
40 -7.543788046789163 -3.233021308975129 -2.2765899885891603
41 -5.246286157733574 0.6818566111166217 -0.26448981177762154
42 -0.5100076564926787 -6.10389254406415 -1.7808227554147937
43 4.858268259599092 -1.88794691919756 -3.4198188777676415
44 0.944011432446674 0.4153382295761688 4.03611215326961
45 0.13393566737290083 -3.3409388705345653 -1.55424363234667
46 0.7595250250836398 -0.43279692406174997 2.3797556356411933
47 -0.7306406524020082 -7.598275765596998 -1.6845772831485883
48 2.34116897073498 0.9015650304227234 -2.7375339757284265
49 2.2059907451582657 -0.0656751785626305 4.508992503543381
50 0.02244029290822735 0.7035323117297486 3.3774786878509064
51 -2.14968255510575 3.648338681408825 0.2535689559001147
52 -1.6327798130286402 2.5813324406980986 3.8659015627579008
53 2.25845719316916 -0.9772434343282763 3.4923549364737316
54 -0.8972688041582002 -0.9733564667412797 -1.8723201559224538
55 0.3742470539796829 -0.9257969972075465 -1.578616645463658
56 2.545490216573863 1.1331628332157706 1.9080217749724278
57 -2.1175437809580715 1.8809170426428397 1.294951779512215
58 -2.3257960114190808 0.48783976894757597 1.2091869883167259
59 -1.4212524184727937 -5.760135652854616 6.2967332600687556
60 -3.0066435378470295 0.6614316232180619 -2.598852330063754
61 -2.002884204550815 5.3004068137186655 -2.7389166209441593
62 -3.279982888814401 3.897028283471845 3.497876085178279
63 5.028731328921479 -0.7323011166075597 -1.0479455547246972
64 -0.29505054458847807 -5.1415194288347355 -5.084759938631387
