 # Something
 64 atoms
 1 atom types
 0   10.479999999999203      xlo xhi 
 0   9.0759462316602288      ylo yhi 
 0   10.339999999999998      zlo zhi 
   0.0000000000000000        0.0000000000000000        0.0000000000000000      xy xz yz
 Atoms
 
           1           1   1.3099999999999004        5.2943019684684671        3.8774999999999995     
           2           1   1.3099999999999004        5.2943019684684671        9.0474999999999977     
           3           1   0.0000000000000000        7.5632885263835243        3.8774999999999995     
           4           1   0.0000000000000000        7.5632885263835243        9.0474999999999977     
           5           1   6.5499999999995016       0.75632885263835237        3.8774999999999995     
           6           1   6.5499999999995016       0.75632885263835237        9.0474999999999977     
           7           1   5.2399999999996014        3.0253154105534095        3.8774999999999995     
           8           1   5.2399999999996014        3.0253154105534095        9.0474999999999977     
           9           1   1.3099999999999004       0.75632885263835237        3.8774999999999995     
          10           1   1.3099999999999004       0.75632885263835237        9.0474999999999977     
          11           1   0.0000000000000000        3.0253154105534095        3.8774999999999995     
          12           1   0.0000000000000000        3.0253154105534095        9.0474999999999977     
          13           1   3.9299999999997013       0.75632885263835237        3.8774999999999995     
          14           1   3.9299999999997013       0.75632885263835237        9.0474999999999977     
          15           1   2.6199999999998007        3.0253154105534095        3.8774999999999995     
          16           1   2.6199999999998007        3.0253154105534095        9.0474999999999977     
          17           1   6.5499999999995016        5.2943019684684671        3.8774999999999995     
          18           1   6.5499999999995016        5.2943019684684671        9.0474999999999977     
          19           1   5.2399999999996014        7.5632885263835243        3.8774999999999995     
          20           1   5.2399999999996014        7.5632885263835243        9.0474999999999977     
          21           1   9.1699999999993018        5.2943019684684671        3.8774999999999995     
          22           1   9.1699999999993018        5.2943019684684671        9.0474999999999977     
          23           1   7.8599999999994026        7.5632885263835243        3.8774999999999995     
          24           1   7.8599999999994026        7.5632885263835243        9.0474999999999977     
          25           1   3.9299999999997013        5.2943019684684671        3.8774999999999995     
          26           1   3.9299999999997013        5.2943019684684671        9.0474999999999977     
          27           1   2.6199999999998007        7.5632885263835243        3.8774999999999995     
          28           1   2.6199999999998007        7.5632885263835243        9.0474999999999977     
          29           1   9.1699999999993018       0.75632885263835237        3.8774999999999995     
          30           1   9.1699999999993018       0.75632885263835237        9.0474999999999977     
          31           1   7.8599999999994026        3.0253154105534095        3.8774999999999995     
          32           1   7.8599999999994026        3.0253154105534095        9.0474999999999977     
          33           1   5.2399999999996014        1.5126577052767052        1.2924999999999998     
          34           1   5.2399999999996014        1.5126577052767052        6.4624999999999986     
          35           1   3.9299999999997013        3.7816442631917622        1.2924999999999998     
          36           1   3.9299999999997013        3.7816442631917622        6.4624999999999986     
          37           1   2.6199999999998007        6.0506308211068198        1.2924999999999998     
          38           1   2.6199999999998007        6.0506308211068198        6.4624999999999986     
          39           1   1.3099999999999004        8.3196173790218779        1.2924999999999998     
          40           1   1.3099999999999004        8.3196173790218779        6.4624999999999986     
          41           1   0.0000000000000000        1.5126577052767052        1.2924999999999998     
          42           1   0.0000000000000000        1.5126577052767052        6.4624999999999986     
          43           1   2.6199999999998007        1.5126577052767052        1.2924999999999998     
          44           1   2.6199999999998007        1.5126577052767052        6.4624999999999986     
          45           1   1.3099999999999004        3.7816442631917622        1.2924999999999998     
          46           1   1.3099999999999004        3.7816442631917622        6.4624999999999986     
          47           1   0.0000000000000000        6.0506308211068198        1.2924999999999998     
          48           1   0.0000000000000000        6.0506308211068198        6.4624999999999986     
          49           1   9.1699999999993018        3.7816442631917622        1.2924999999999998     
          50           1   9.1699999999993018        3.7816442631917622        6.4624999999999986     
          51           1   7.8599999999994026        6.0506308211068198        1.2924999999999998     
          52           1   7.8599999999994026        6.0506308211068198        6.4624999999999986     
          53           1   6.5499999999995016        8.3196173790218779        1.2924999999999998     
          54           1   6.5499999999995016        8.3196173790218779        6.4624999999999986     
          55           1   9.1699999999993018        8.3196173790218779        1.2924999999999998     
          56           1   9.1699999999993018        8.3196173790218779        6.4624999999999986     
          57           1   7.8599999999994026        1.5126577052767052        1.2924999999999998     
          58           1   7.8599999999994026        1.5126577052767052        6.4624999999999986     
          59           1   6.5499999999995016        3.7816442631917622        1.2924999999999998     
          60           1   6.5499999999995016        3.7816442631917622        6.4624999999999986     
          61           1   5.2399999999996014        6.0506308211068198        1.2924999999999998     
          62           1   5.2399999999996014        6.0506308211068198        6.4624999999999986     
          63           1   3.9299999999997013        8.3196173790218779        1.2924999999999998     
          64           1   3.9299999999997013        8.3196173790218779        6.4624999999999986     
