LAMMPS (29 Sep 2021 - Update 1)
Reading data file ...
  triclinic box = (0.0000000 0.0000000 0.0000000) to (10.640000 9.2145103 10.340000) with tilt (0.0000000 0.0000000 0.0000000)
  1 by 1 by 1 MPI processor grid
  reading atoms ...
  64 atoms
  read_data CPU = 0.001 seconds
Neighbor list info ...
  update every 1 steps, delay 0 steps, check yes
  max neighbors/atom: 2000, page size: 100000
  master list distance cutoff = 7
  ghost atom cutoff = 7
  binsize = 3.5, bins = 4 3 3
  1 neighbor lists, perpetual/occasional/extra = 1 0 0
  (1) pair mlip, perpetual
      attributes: full, newton on
      pair build: full/bin/atomonly
      stencil: full/bin/3d
      bin: standard
Setting up Verlet run ...
  Unit style    : metal
  Current step  : 0
  Time step     : 0.001
Per MPI rank memory allocation (min/avg/max) = 3.089 | 3.089 | 3.089 Mbytes
Step Time Temp Volume Press 
       0            0         1380    1013.7583   -17406.942 
       1        0.001    1379.2123    1013.7583   -17378.431 
       2        0.002    1376.8519    1013.7583    -17292.97 
       3        0.003    1372.9261    1013.7583   -17150.778 
       4        0.004    1367.4476    1013.7583    -16952.23 
       5        0.005    1360.4337    1013.7583   -16697.857 
       6        0.006    1351.9069    1013.7583   -16388.347 
       7        0.007    1341.8948    1013.7583   -16024.645 
       8        0.008    1330.4307    1013.7583   -15610.232 
       9        0.009     1317.554    1013.7583   -15146.933 
      10         0.01     1303.309    1013.7583   -14635.106 
Loop time of 0.230752 on 1 procs for 10 steps with 64 atoms

Performance: 3.744 ns/day, 6.410 hours/ns, 43.337 timesteps/s
93.0% CPU use with 1 MPI tasks x no OpenMP threads

MPI task timing breakdown:
Section |  min time  |  avg time  |  max time  |%varavg| %total
---------------------------------------------------------------
Pair    | 0.23063    | 0.23063    | 0.23063    |   0.0 | 99.95
Neigh   | 0          | 0          | 0          |   0.0 |  0.00
Comm    | 3.7004e-05 | 3.7004e-05 | 3.7004e-05 |   0.0 |  0.02
Output  | 4.2814e-05 | 4.2814e-05 | 4.2814e-05 |   0.0 |  0.02
Modify  | 2.8153e-05 | 2.8153e-05 | 2.8153e-05 |   0.0 |  0.01
Other   |            | 1.222e-05  |            |       |  0.01

Nlocal:        64.0000 ave          64 max          64 min
Histogram: 1 0 0 0 0 0 0 0 0 0
Nghost:        886.000 ave         886 max         886 min
Histogram: 1 0 0 0 0 0 0 0 0 0
Neighs:         0.00000 ave           0 max           0 min
Histogram: 1 0 0 0 0 0 0 0 0 0
FullNghs:      5504.00 ave        5504 max        5504 min
Histogram: 1 0 0 0 0 0 0 0 0 0

Total # of neighbors = 5504
Ave neighs/atom = 86.000000
Neighbor list builds = 0
Dangerous builds = 0
Setting up Verlet run ...
  Unit style    : metal
  Current step  : 10
  Time step     : 0.001
Per MPI rank memory allocation (min/avg/max) = 3.089 | 3.089 | 3.089 Mbytes
Step Time Temp Volume Press 
      10         0.01     1303.309    1013.7583   -14635.106 
      11        0.011    1287.7449    1013.7583   -14078.504 
      12        0.012    1270.9171    1013.7583   -13481.415 
      13        0.013    1252.8839    1013.7583   -12847.984 
      14        0.014    1233.7063    1013.7583   -12178.449 
      15        0.015    1213.4513    1013.7583   -11473.217 
      16        0.016    1192.1914    1013.7583   -10737.531 
      17        0.017    1170.0022    1013.7583   -9973.0909 
      18        0.018    1146.9624    1013.7583   -9181.1842 
      19        0.019    1123.1546    1013.7583   -8364.2439 
      20         0.02    1098.6657    1013.7583   -7520.0129 
      21        0.021    1073.5855    1013.7583   -6657.1685 
      22        0.022    1048.0063    1013.7583   -5778.0591 
      23        0.023     1022.023    1013.7583   -4887.5792 
      24        0.024    995.73272    1013.7583   -3986.6986 
      25        0.025    969.23397    1013.7583   -3076.3765 
      26        0.026    942.62611    1013.7583   -2159.7021 
      27        0.027    916.00859    1013.7583   -1239.3794 
      28        0.028     889.4795    1013.7583   -323.05612 
      29        0.029    863.13548    1013.7583    589.79617 
      30         0.03    837.07175    1013.7583    1496.8377 
      31        0.031    811.38101    1013.7583    2396.1481 
      32        0.032    786.15225    1013.7583    3282.3735 
      33        0.033    761.47017    1013.7583    4154.3564 
      34        0.034    737.41513    1013.7583    5010.5193 
      35        0.035    714.06229    1013.7583     5848.024 
      36        0.036    691.48095    1013.7583    6665.5554 
      37        0.037    669.73406    1013.7583    7460.8309 
      38        0.038    648.87792    1013.7583    8232.4615 
      39        0.039    628.96174    1013.7583    8977.5916 
      40         0.04    610.02726    1013.7583    9693.5239 
      41        0.041    592.10853    1013.7583    10378.575 
      42        0.042     575.2321    1013.7583    11032.158 
      43        0.043    559.41715    1013.7583    11653.729 
      44        0.044    544.67543    1013.7583    12242.381 
      45        0.045    531.01158    1013.7583    12798.014 
      46        0.046    518.42317    1013.7583    13318.133 
      47        0.047    506.90108    1013.7583    13804.327 
      48        0.048    496.43008    1013.7583    14257.534 
      49        0.049    486.98914    1013.7583    14678.504 
      50         0.05    478.55187    1013.7583    15067.569 
      51        0.051    471.08694    1013.7583    15423.954 
      52        0.052    464.55871    1013.7583    15749.449 
      53        0.053    458.92791    1013.7583    16044.962 
      54        0.054    454.15204    1013.7583    16310.662 
      55        0.055    450.18608    1013.7583    16548.485 
      56        0.056    446.98284    1013.7583    16757.857 
      57        0.057    444.49326    1013.7583    16939.702 
      58        0.058    442.66732    1013.7583    17098.277 
      59        0.059    441.45454    1013.7583    17233.659 
      60         0.06    440.80415    1013.7583    17345.234 
      61        0.061     440.6657    1013.7583    17435.937 
      62        0.062    440.98969    1013.7583    17508.191 
      63        0.063    441.72796    1013.7583    17561.398 
      64        0.064      442.834    1013.7583    17596.719 
      65        0.065    444.26276    1013.7583    17618.233 
      66        0.066    445.97082    1013.7583    17627.247 
      67        0.067    447.91677    1013.7583    17625.515 
      68        0.068    450.06149    1013.7583    17614.838 
      69        0.069    452.36821    1013.7583    17595.465 
      70         0.07     454.8026    1013.7583     17568.61 
      71        0.071    457.33279    1013.7583    17536.032 
      72        0.072    459.92959    1013.7583    17497.696 
      73        0.073    462.56669    1013.7583    17455.918 
      74        0.074     465.2203    1013.7583    17410.017 
      75        0.075    467.86921    1013.7583    17360.953 
      76        0.076    470.49507    1013.7583     17309.89 
      77        0.077    473.08222    1013.7583    17257.705 
      78        0.078    475.61723    1013.7583    17203.462 
      79        0.079    478.08901    1013.7583    17148.651 
      80         0.08    480.48873    1013.7583    17094.129 
      81        0.081    482.80969    1013.7583    17039.976 
      82        0.082    485.04721    1013.7583    16986.483 
      83        0.083    487.19826    1013.7583     16933.06 
      84        0.084     489.2615    1013.7583    16880.975 
      85        0.085    491.23743    1013.7583    16829.953 
      86        0.086    493.12782    1013.7583     16778.57 
      87        0.087    494.93572    1013.7583    16728.151 
      88        0.088    496.66542    1013.7583    16679.364 
      89        0.089    498.32216    1013.7583     16632.02 
      90         0.09    499.91183    1013.7583    16585.956 
      91        0.091    501.44063    1013.7583    16539.034 
      92        0.092    502.91526    1013.7583    16493.393 
      93        0.093    504.34301    1013.7583    16449.147 
      94        0.094    505.73136    1013.7583    16405.977 
      95        0.095    507.08787    1013.7583    16362.109 
      96        0.096    508.41998    1013.7583    16317.748 
      97        0.097    509.73483    1013.7583    16271.347 
      98        0.098    511.03944    1013.7583    16223.436 
      99        0.099    512.34058    1013.7583    16175.007 
     100          0.1    513.64474    1013.7583    16126.311 
Loop time of 1.89396 on 1 procs for 90 steps with 64 atoms

Performance: 4.106 ns/day, 5.846 hours/ns, 47.519 timesteps/s
100.0% CPU use with 1 MPI tasks x no OpenMP threads

MPI task timing breakdown:
Section |  min time  |  avg time  |  max time  |%varavg| %total
---------------------------------------------------------------
Pair    | 1.8929     | 1.8929     | 1.8929     |   0.0 | 99.94
Neigh   | 0.00020426 | 0.00020426 | 0.00020426 |   0.0 |  0.01
Comm    | 0.00032406 | 0.00032406 | 0.00032406 |   0.0 |  0.02
Output  | 0.00033193 | 0.00033193 | 0.00033193 |   0.0 |  0.02
Modify  | 0.00017072 | 0.00017072 | 0.00017072 |   0.0 |  0.01
Other   |            | 7.994e-05  |            |       |  0.00

Nlocal:        64.0000 ave          64 max          64 min
Histogram: 1 0 0 0 0 0 0 0 0 0
Nghost:        886.000 ave         886 max         886 min
Histogram: 1 0 0 0 0 0 0 0 0 0
Neighs:         0.00000 ave           0 max           0 min
Histogram: 1 0 0 0 0 0 0 0 0 0
FullNghs:      5684.00 ave        5684 max        5684 min
Histogram: 1 0 0 0 0 0 0 0 0 0

Total # of neighbors = 5684
Ave neighs/atom = 88.812500
Neighbor list builds = 1
Dangerous builds = 0
Setting up Verlet run ...
  Unit style    : metal
  Current step  : 100
  Time step     : 0.001
Per MPI rank memory allocation (min/avg/max) = 3.089 | 3.089 | 3.089 Mbytes
Step Time Temp Volume Press 
     100          0.1    513.64474    1013.7583    16126.311 
     110         0.11    528.02076    1013.7583    15546.781 
     120         0.12    546.99294    1013.7583    14770.837 
     130         0.13    569.44934    1013.7583    13925.735 
     140         0.14    588.88801    1013.7583    13260.853 
     150         0.15    600.62933    1013.7583    12981.235 
     160         0.16     610.5038    1013.7583    12846.167 
     170         0.17    628.35715    1013.7583     12636.83 
     180         0.18    649.32282    1013.7583    12504.327 
     190         0.19    653.83476    1013.7583    12937.757 
     200          0.2    637.09595    1013.7583    13912.632 
     210         0.21    622.00389    1013.7583    14823.195 
     220         0.22    624.29198    1013.7583    15405.982 
     230         0.23    629.42672    1013.7583    16016.878 
     240         0.24    623.13003    1013.7583    16907.136 
     250         0.25      616.305    1013.7583    17705.025 
     260         0.26    630.84508    1013.7583    17834.043 
     270         0.27    673.60586    1013.7583    17129.859 
     280         0.28    724.53368    1013.7583    16108.948 
     290         0.29    750.39269    1013.7583    15656.491 
     300          0.3    733.28762    1013.7583    16294.175 
     310         0.31    688.84381    1013.7583    17658.375 
     320         0.32     654.6781    1013.7583    18804.161 
     330         0.33    655.41287    1013.7583    18966.832 
     340         0.34    683.26106    1013.7583    18253.577 
     350         0.35    715.36111    1013.7583    17311.101 
     360         0.36     735.7791    1013.7583    16650.433 
     370         0.37    739.58467    1013.7583    16509.084 
     380         0.38     731.0991    1013.7583    16839.799 
     390         0.39    720.83437    1013.7583    17240.189 
     400          0.4    717.81761    1013.7583    17332.455 
     410         0.41    726.15143    1013.7583     17033.92 
     420         0.42    745.10427    1013.7583    16359.812 
     430         0.43    768.74835    1013.7583    15416.621 
     440         0.44    788.66445    1013.7583    14549.111 
     450         0.45    794.69459    1013.7583    14209.251 
     460         0.46    779.06983    1013.7583     14563.38 
     470         0.47    744.68985    1013.7583    15459.703 
     480         0.48    703.61202    1013.7583    16449.956 
     490         0.49    670.72085    1013.7583     16981.71 
     500          0.5    661.10742    1013.7583     16730.16 
     510         0.51    681.54612    1013.7583    15552.633 
     520         0.52    720.71177    1013.7583    13781.257 
     530         0.53    756.84907    1013.7583    12003.464 
     540         0.54    774.64987    1013.7583    10598.762 
     550         0.55    769.03712    1013.7583    9822.7576 
     560         0.56    741.85567    1013.7583    9654.1858 
     570         0.57    700.28824    1013.7583    9916.7665 
     580         0.58    656.81103    1013.7583    10241.182 
     590         0.59    629.20434    1013.7583    10145.142 
     600          0.6    632.16589    1013.7583    9230.1833 
     610         0.61     661.3568    1013.7583    7636.1186 
     620         0.62    696.57087    1013.7583    5965.5512 
     630         0.63    722.05899    1013.7583    4735.6774 
     640         0.64    730.31602    1013.7583    4258.7578 
     650         0.65    717.90293    1013.7583    4644.0719 
     660         0.66    685.75326    1013.7583    5742.6284 
     670         0.67    641.04585    1013.7583    7383.3507 
     680         0.68    597.13826    1013.7583    9093.8524 
     690         0.69    568.08968    1013.7583    10359.429 
     700          0.7    561.08209    1013.7583     10911.82 
     710         0.71    573.44757    1013.7583    10785.475 
     720         0.72    595.75645    1013.7583    10321.096 
     730         0.73    615.84924    1013.7583    9941.4802 
     740         0.74    625.40258    1013.7583    9940.5271 
     750         0.75    626.58843    1013.7583    10324.748 
     760         0.76    627.26356    1013.7583    10808.872 
     770         0.77    630.21532    1013.7583    11190.924 
     780         0.78    633.18237    1013.7583    11508.782 
     790         0.79    635.28357    1013.7583    11833.894 
     800          0.8    636.90632    1013.7583    12212.901 
     810         0.81    635.71534    1013.7583    12696.925 
     820         0.82     629.5077    1013.7583    13305.457 
     830         0.83     624.7565    1013.7583    13811.586 
     840         0.84     636.2728    1013.7583     13786.62 
     850         0.85    676.15483    1013.7583    12878.691 
     860         0.86    738.78883    1013.7583    11240.066 
     870         0.87    795.95951    1013.7583    9743.0278 
     880         0.88    816.54759    1013.7583    9343.1845 
     890         0.89    793.02003    1013.7583    10256.596 
     900          0.9    746.66705    1013.7583    11835.207 
     910         0.91    706.34964    1013.7583    13356.243 
     920         0.92    688.39945    1013.7583     14315.82 
     930         0.93    693.26966    1013.7583    14594.074 
     940         0.94    711.05292    1013.7583    14289.084 
     950         0.95    731.15782    1013.7583    13790.583 
     960         0.96    747.03316    1013.7583    13300.951 
     970         0.97    754.49071    1013.7583    13108.129 
     980         0.98    746.42096    1013.7583    13444.803 
     990         0.99    716.62864    1013.7583    14446.334 
    1000            1    674.37647    1013.7583    15798.837 
Loop time of 18.863 on 1 procs for 900 steps with 64 atoms

Performance: 4.122 ns/day, 5.822 hours/ns, 47.712 timesteps/s
100.0% CPU use with 1 MPI tasks x no OpenMP threads

MPI task timing breakdown:
Section |  min time  |  avg time  |  max time  |%varavg| %total
---------------------------------------------------------------
Pair    | 18.854     | 18.854     | 18.854     |   0.0 | 99.95
Neigh   | 0.003123   | 0.003123   | 0.003123   |   0.0 |  0.02
Comm    | 0.0032372  | 0.0032372  | 0.0032372  |   0.0 |  0.02
Output  | 0.00041601 | 0.00041601 | 0.00041601 |   0.0 |  0.00
Modify  | 0.0016742  | 0.0016742  | 0.0016742  |   0.0 |  0.01
Other   |            | 0.0007104  |            |       |  0.00

Nlocal:        64.0000 ave          64 max          64 min
Histogram: 1 0 0 0 0 0 0 0 0 0
Nghost:        882.000 ave         882 max         882 min
Histogram: 1 0 0 0 0 0 0 0 0 0
Neighs:         0.00000 ave           0 max           0 min
Histogram: 1 0 0 0 0 0 0 0 0 0
FullNghs:      5710.00 ave        5710 max        5710 min
Histogram: 1 0 0 0 0 0 0 0 0 0

Total # of neighbors = 5710
Ave neighs/atom = 89.218750
Neighbor list builds = 15
Dangerous builds = 0
Setting up Verlet run ...
  Unit style    : metal
  Current step  : 1000
  Time step     : 0.001
Per MPI rank memory allocation (min/avg/max) = 3.089 | 3.089 | 3.089 Mbytes
Step Time Temp Volume Press 
    1000            1    674.37647    1013.7583    15798.837 
    1100          1.1    719.84743    1013.7583    11673.729 
    1200          1.2    528.51504    1013.7583    8608.4874 
    1300          1.3    609.18144    1013.7583    6390.7871 
    1400          1.4    575.07862    1013.7583    11630.405 
    1500          1.5    659.44018    1013.7583    12320.867 
    1600          1.6    838.28057    1013.7583    10074.199 
    1700          1.7     697.2796    1013.7583    12958.288 
    1800          1.8    625.32581    1013.7583    9660.7218 
    1900          1.9    548.84579    1013.7583    6576.4547 
    2000            2    605.34459    1013.7583    6872.3317 
    2100          2.1    512.30642    1013.7583    14296.264 
    2200          2.2    693.39378    1013.7583     10907.01 
    2300          2.3    729.58324    1013.7583     11300.45 
    2400          2.4    584.81812    1013.7583    12952.063 
    2500          2.5     682.4438    1013.7583    10403.029 
    2600          2.6    668.95376    1013.7583    16560.308 
    2700          2.7    742.73086    1013.7583    14558.025 
    2800          2.8    577.72994    1013.7583    14667.808 
    2900          2.9    670.26834    1013.7583    8419.4785 
    3000            3     595.0283    1013.7583    9333.8839 
    3100          3.1    629.34827    1013.7583     10519.99 
    3200          3.2    757.54894    1013.7583    12476.153 
    3300          3.3    715.60172    1013.7583    16328.277 
    3400          3.4    683.54405    1013.7583    14667.904 
    3500          3.5    666.29594    1013.7583    7192.6529 
    3600          3.6    616.96595    1013.7583    7795.4649 
    3700          3.7    693.80677    1013.7583     7830.067 
    3800          3.8     763.3903    1013.7583    9781.2941 
    3900          3.9    612.77912    1013.7583    18736.533 
    4000            4     827.0554    1013.7583    11351.454 
    4100          4.1    665.89358    1013.7583    12863.804 
    4200          4.2    563.61741    1013.7583    8528.5856 
    4300          4.3     644.0136    1013.7583    7546.3061 
    4400          4.4    609.26238    1013.7583    14823.673 
    4500          4.5    791.49886    1013.7583    14525.458 
    4600          4.6    785.45824    1013.7583    13043.085 
    4700          4.7    686.23765    1013.7583    12396.616 
    4800          4.8    643.95134    1013.7583    13888.147 
    4900          4.9    665.46615    1013.7583     14435.64 
    5000            5     704.3332    1013.7583    16715.634 
    5100          5.1     900.9374    1013.7583      16796.9 
    5200          5.2    682.62995    1013.7583    22587.744 
    5300          5.3     749.3433    1013.7583    14605.501 
    5400          5.4    778.59829    1013.7583     11615.74 
    5500          5.5     669.7974    1013.7583    10585.667 
    5600          5.6    652.85144    1013.7583    11063.573 
    5700          5.7    638.03289    1013.7583    18013.124 
    5800          5.8    823.17961    1013.7583    12533.796 
    5900          5.9    653.91905    1013.7583     16229.54 
    6000            6     728.7493    1013.7583    11885.815 
    6100          6.1    711.49513    1013.7583    11292.532 
    6200          6.2    581.68398    1013.7583    10065.854 
    6300          6.3    604.73659    1013.7583    5899.6504 
    6400          6.4    644.45104    1013.7583    10196.652 
    6500          6.5    728.10856    1013.7583    14825.989 
    6600          6.6    758.01186    1013.7583    16013.945 
    6700          6.7    679.32969    1013.7583    16002.851 
    6800          6.8    567.53933    1013.7583    13899.046 
    6900          6.9    649.42717    1013.7583     10786.93 
    7000            7    734.28252    1013.7583    10018.906 
    7100          7.1    593.09856    1013.7583     16436.73 
    7200          7.2    681.13095    1013.7583    18105.316 
    7300          7.3    732.34977    1013.7583    18167.368 
    7400          7.4    696.74268    1013.7583      17190.6 
    7500          7.5    708.81152    1013.7583    11732.269 
    7600          7.6    759.54114    1013.7583    6526.1928 
    7700          7.7    615.59165    1013.7583     9204.108 
    7800          7.8    694.97577    1013.7583    11470.446 
    7900          7.9    785.47018    1013.7583    16834.174 
    8000            8    729.18143    1013.7583    17668.887 
    8100          8.1    690.67433    1013.7583    9378.2727 
    8200          8.2    670.19268    1013.7583    9324.3271 
    8300          8.3    628.96841    1013.7583    13646.039 
    8400          8.4    844.92946    1013.7583    11840.119 
    8500          8.5     644.5468    1013.7583    16334.904 
    8600          8.6    677.15062    1013.7583    13692.845 
    8700          8.7    717.91439    1013.7583     15915.45 
    8800          8.8     765.9961    1013.7583    15219.148 
    8900          8.9    710.01289    1013.7583    9612.9096 
    9000            9    633.81895    1013.7583    7937.7847 
    9100          9.1      628.226    1013.7583    10210.846 
    9200          9.2    676.87098    1013.7583    13656.169 
    9300          9.3    733.04547    1013.7583    13561.763 
    9400          9.4    675.08513    1013.7583     13182.13 
    9500          9.5    603.13307    1013.7583    10485.998 
    9600          9.6    588.84475    1013.7583    7513.4805 
    9700          9.7     601.9102    1013.7583    11425.348 
    9800          9.8    861.29173    1013.7583    9821.5331 
    9900          9.9    719.71533    1013.7583    13541.315 
   10000           10    690.11947    1013.7583    12216.934 
Loop time of 188.156 on 1 procs for 9000 steps with 64 atoms

Performance: 4.133 ns/day, 5.807 hours/ns, 47.833 timesteps/s
100.0% CPU use with 1 MPI tasks x no OpenMP threads

MPI task timing breakdown:
Section |  min time  |  avg time  |  max time  |%varavg| %total
---------------------------------------------------------------
Pair    | 188.07     | 188.07     | 188.07     |   0.0 | 99.95
Neigh   | 0.033774   | 0.033774   | 0.033774   |   0.0 |  0.02
Comm    | 0.032151   | 0.032151   | 0.032151   |   0.0 |  0.02
Output  | 0.00053734 | 0.00053734 | 0.00053734 |   0.0 |  0.00
Modify  | 0.016348   | 0.016348   | 0.016348   |   0.0 |  0.01
Other   |            | 0.006951   |            |       |  0.00

Nlocal:        64.0000 ave          64 max          64 min
Histogram: 1 0 0 0 0 0 0 0 0 0
Nghost:        880.000 ave         880 max         880 min
Histogram: 1 0 0 0 0 0 0 0 0 0
Neighs:         0.00000 ave           0 max           0 min
Histogram: 1 0 0 0 0 0 0 0 0 0
FullNghs:      5762.00 ave        5762 max        5762 min
Histogram: 1 0 0 0 0 0 0 0 0 0

Total # of neighbors = 5762
Ave neighs/atom = 90.031250
Neighbor list builds = 162
Dangerous builds = 0
System init for write_data ...
Total wall time: 0:03:29
