LAMMPS data file via write_data, version 29 Sep 2021, timestep = 10000

64 atoms
1 atom types

0 10.519999999999747 xlo xhi
0 9.110587247812074 ylo yhi
0 10.34 zlo zhi
0 0 0 xy xz yz

Masses

1 65.38

Atoms # atomic

1 1 1.404747787641267 5.171725751421338 4.026759014405366 0 0 0
2 1 1.2202116120555573 5.217124706937904 9.331546146295008 0 0 0
3 1 10.29973127873717 7.660406041050978 4.2140400023323625 -1 0 0
4 1 0.0336117909885128 7.552652555962794 9.392504463772422 0 0 0
5 1 6.6295956649060175 0.9031362642319313 3.310655365027726 0 0 0
6 1 6.609784667467072 0.5268066521380228 8.869591474838666 0 0 0
7 1 5.022004062579882 2.9164103332575624 3.651071336668463 0 0 0
8 1 5.283207117026756 2.8841080409526763 8.859700159848346 0 0 0
9 1 1.406746314530797 0.9435131063355162 3.771297103652327 0 0 0
10 1 1.011096067020896 0.763616053901669 8.939362311606112 0 0 0
11 1 10.423729452686217 3.044164008755473 4.376973563710255 -1 0 0
12 1 10.310457123578143 2.9365973679427753 9.235403456765727 -1 0 0
13 1 4.06272544390944 0.7191368976042901 3.424031736682145 0 0 0
14 1 4.062030818843659 0.8436050213953257 9.271874933517164 0 0 0
15 1 2.5806114901633235 2.9679929898565645 4.270417597249904 0 0 0
16 1 2.4341275169077377 2.9184206760998634 9.02046148674207 0 0 0
17 1 6.518314637632721 5.313634652405911 3.688542941987161 0 0 0
18 1 6.6519352658043385 5.251046168152397 8.863642265822405 0 0 0
19 1 5.402282983022906 7.902040611497976 3.8606282842086665 0 0 0
20 1 5.2616199625493145 7.420366275627547 9.147463563043841 0 0 0
21 1 9.430364006786672 5.156344046560801 3.563160145970195 0 0 0
22 1 9.176619171785367 5.119558360579742 8.921653300117613 0 0 0
23 1 7.8019376742009205 7.622118339459712 3.5227676532976506 0 0 0
24 1 7.907701531676938 7.527657151946802 9.290186361148727 0 0 0
25 1 3.902124362010557 5.4512426500714755 3.857259959037797 0 0 0
26 1 4.002271747142981 5.278399212974356 9.040151842279176 0 0 0
27 1 2.555114380463981 7.3746380723159906 4.445891405395284 0 0 0
28 1 2.5183864353871543 7.653603891882552 9.331121491540138 0 0 0
29 1 9.327219888090209 0.8669487539229164 3.6999487072593484 0 0 0
30 1 8.969522587780336 0.6706041966634164 9.2764500384555 0 0 0
31 1 7.856197791061864 3.171438040548032 3.806283706050373 0 0 0
32 1 7.681790941086304 2.801455590792859 8.882735977894564 0 0 0
33 1 5.546701414854808 1.719475362473627 0.9677976697131625 0 0 0
34 1 5.292115146430095 1.535178989297697 6.400504856457456 0 0 0
35 1 3.8438979386766765 4.014658761802899 1.5617336113835825 0 0 0
36 1 3.9085694151131096 3.739400667425885 6.378077291126246 0 0 0
37 1 2.5422019807396254 6.139867566998793 1.1136557107810539 0 0 0
38 1 2.7299427158565357 6.197741208791616 6.905342476416322 0 0 0
39 1 1.3999862474624767 8.438823143728737 1.300817776992648 0 0 0
40 1 1.3068323394051897 8.3887401501667 6.3565497552915655 0 0 0
41 1 0.1719729195989582 1.2369730744255507 1.1656609492436258 0 0 0
42 1 10.398057982858028 1.527219880006681 6.248426451943916 -1 0 0
43 1 2.7935831733914527 1.7013570564758678 1.1960101885101253 0 0 0
44 1 2.804435593252228 1.179481345402886 6.811608159463896 0 0 0
45 1 1.3125479903611066 3.6290300347052487 1.9270855496458075 0 0 0
46 1 1.4904349536578196 3.879246576191921 6.558387401977278 0 0 0
47 1 0.06476006390535216 6.0124745440962855 1.459481595799364 0 0 0
48 1 0.11078941577423447 6.107835273602744 6.670518177078438 0 0 0
49 1 9.31352944848248 4.026153155523295 1.0773398551642115 0 0 0
50 1 9.415037514557515 3.7309708970360402 6.774119674403473 0 0 0
51 1 7.740914900470437 6.172776932752548 1.0607291242598402 0 0 0
52 1 7.741466817695338 6.0724975100236716 6.661659191605877 0 0 0
53 1 6.473835382963075 8.654188476492404 1.182561679858122 0 0 0
54 1 6.52593799081125 8.388215409594121 6.0488619277470885 0 0 0
55 1 9.150667391465799 8.393373193061793 1.3941843939381313 0 0 0
56 1 9.061216260850664 8.345414077214885 6.531736079440753 0 0 0
57 1 8.216010249136318 1.7562417033281483 1.2020694305703878 0 0 0
58 1 7.93039184571344 1.5951611309213052 5.965576877146175 0 0 0
59 1 6.75558925890101 3.8481081534315704 1.3151799736639278 0 0 0
60 1 6.408934916210628 3.7499394930084033 6.237705236793094 0 0 0
61 1 5.184330299603816 6.2481511890077694 1.465184200143365 0 0 0
62 1 5.33991553007801 5.8464816267746444 6.26111848472716 0 0 0
63 1 3.979124724010384 8.362938381453327 1.0840136326987575 0 0 0
64 1 3.928446602177485 8.35016448152461 6.432724819395254 0 0 0

Velocities

1 -0.4752347863881174 2.443938445320047 0.06637622152878069
2 2.627223251886181 1.4919736484931274 3.029479253338187
3 -0.21594249564343296 -0.5826386227196204 -4.121290085280884
4 -6.3856125621770055 2.272671175064703 -2.8155468245140276
5 3.2722219621663915 -2.8488810374491647 0.812614121679362
6 2.124675112134289 3.1389437843113805 2.7743935452061903
7 0.8078157471150816 3.0581016405862513 1.1854444476826513
8 1.9880211594444204 -2.526741410469579 1.1595482029346458
9 3.274057283609327 2.8297314393108945 3.62626161330325
10 -2.853215591340897 4.173956385424627 2.25448507396113
11 -7.309420067951709 1.84732943883993 -4.0360958968112355
12 1.3757193347208752 1.8328373783937675 -1.9499198632322654
13 0.6168842078367087 -3.2984731623790764 8.668912618896751
14 -3.1935593621674365 -4.625793605715672 -1.738704346527318
15 0.8153509016405126 -0.5597029401726761 -1.4891798375496559
16 1.6656019298864864 -2.6820369810430975 -0.46156795548298457
17 2.989201687103733 2.9719230045191454 -0.46854880752158157
18 0.8640067948278372 -2.9793030061766412 -4.11436317779819
19 -1.3224374350032688 -2.2801692879036812 0.8448900206409387
20 0.3594186882179261 0.6703477870029511 -1.1697412996884236
21 0.5752533269330768 -4.408273014977416 -0.37579157650568984
22 0.8250847922994893 -3.5125279664252735 0.36968326947802393
23 -0.8172045749960046 -3.0641667384650604 4.585846776741591
24 -0.6774611104144266 3.5720798791566684 -1.0632206290443225
25 -3.3220428091273995 -0.9419713506045212 -4.574945722268693
26 1.4049875328640906 -0.8673199611163149 -0.43961245180582187
27 -4.244656905491592 -0.358213380274074 2.473865954400296
28 3.154504497244836 -3.732895010670775 -4.185418819185221
29 -3.3834797141420085 -0.11369496098136918 -4.6766415748860855
30 -3.179811957475424 -0.32339469165066714 1.5339142395227832
31 -0.9042778077715004 2.3476814816486207 0.5236650081777284
32 -2.1397546037254314 2.633755858264524 3.3843265057337217
33 1.125534775849538 0.19523229317978766 -3.331592690606861
34 6.37670565931937 -4.547615382746058 3.3580643594476065
35 6.515229947983307 -0.8337842702808265 -2.0067039711134966
36 0.19559589853899104 -4.213611289961763 1.4833745063522878
37 -2.603493617081542 1.301721501629092 0.4569242081102548
38 2.8374773204206587 2.2516995243322993 0.472452772907137
39 -3.2387180463751357 -1.9360143909553713 1.4729349343688807
40 1.5346914519740473 0.805939839664547 -1.326683230633102
41 1.8375858366420021 1.1582738062205469 -4.127840202516634
42 -1.0033689359988547 2.398788160508268 0.10848030113359097
43 4.5143123405804175 2.4065098291177773 1.3946622484405162
44 2.9914237297254287 3.038290653447474 1.5006941805290268
45 -0.7023228445599691 0.06958913859477295 0.6270202421584601
46 -3.6182396145280795 -2.4720958017734564 2.680474962885155
47 2.2455506170129307 1.1535292942949553 -4.454135893583971
48 -1.4672650792461195 1.5909775214433521 2.083568305788223
49 -5.618511837236671 4.044967953309256 1.8713429589038522
50 1.794375141377657 -0.938533554294672 -4.709805360492588
51 5.168092857884761 2.6587229565524675 3.9770541648900926
52 -5.3243903946005355 2.28210899152851 1.2477163374233629
53 0.4105540172922059 3.5355944471692675 2.2148370744480133
54 -5.341641680044187 4.722413485813935 -0.36482703088939783
55 1.9914273217243534 7.043549850902351 2.0728097058713635
56 -0.9388975211722531 -0.19573693490605382 1.7902453307041277
57 2.4958326733710594 -5.26454091730536 4.38801321308882
58 1.8678290000033366 -3.8839048119397557 4.446216564785717
59 2.8839285499857827 -1.8290442790115347 -2.7674903538377236
60 -2.35247249582661 2.8774311454814354 -3.370334296118633
61 0.1680515932638228 -7.721720143191181 -1.4207055378703586
62 -0.5605752896941583 -2.1209405693618857 -4.374973144586898
63 2.717804819335932 0.2782999907210328 -1.333950241961816
64 -5.218022622037627 -3.4351722553251998 -3.6709624231488527
