ITEM: TIMESTEP
10000
ITEM: NUMBER OF ATOMS
64
ITEM: BOX BOUNDS xy xz yz pp pp pp
0.0000000000000000e+00 1.0519999999999747e+01 0.0000000000000000e+00
0.0000000000000000e+00 9.1105872478120737e+00 0.0000000000000000e+00
0.0000000000000000e+00 1.0340000000000000e+01 0.0000000000000000e+00
ITEM: ATOMS id type x y z
1 1 1.40475 5.17173 4.02676
2 1 1.22021 5.21712 9.33155
3 1 10.2997 7.66041 4.21404
4 1 0.0336118 7.55265 9.3925
5 1 6.6296 0.903136 3.31066
6 1 6.60978 0.526807 8.86959
7 1 5.022 2.91641 3.65107
8 1 5.28321 2.88411 8.8597
9 1 1.40675 0.943513 3.7713
10 1 1.0111 0.763616 8.93936
11 1 -0.0962705 3.04416 4.37697
12 1 10.3105 2.9366 9.2354
13 1 4.06273 0.719137 3.42403
14 1 4.06203 0.843605 9.27187
15 1 2.58061 2.96799 4.27042
16 1 2.43413 2.91842 9.02046
17 1 6.51831 5.31363 3.68854
18 1 6.65194 5.25105 8.86364
19 1 5.40228 7.90204 3.86063
20 1 5.26162 7.42037 9.14746
21 1 9.43036 5.15634 3.56316
22 1 9.17662 5.11956 8.92165
23 1 7.80194 7.62212 3.52277
24 1 7.9077 7.52766 9.29019
25 1 3.90212 5.45124 3.85726
26 1 4.00227 5.2784 9.04015
27 1 2.55511 7.37464 4.44589
28 1 2.51839 7.6536 9.33112
29 1 9.32722 0.866949 3.69995
30 1 8.96952 0.670604 9.27645
31 1 7.8562 3.17144 3.80628
32 1 7.68179 2.80146 8.88274
33 1 5.5467 1.71948 0.967798
34 1 5.29212 1.53518 6.4005
35 1 3.8439 4.01466 1.56173
36 1 3.90857 3.7394 6.37808
37 1 2.5422 6.13987 1.11366
38 1 2.72994 6.19774 6.90534
39 1 1.39999 8.43882 1.30082
40 1 1.30683 8.38874 6.35655
41 1 0.171973 1.23697 1.16566
42 1 10.3981 1.52722 6.24843
43 1 2.79358 1.70136 1.19601
44 1 2.80444 1.17948 6.81161
45 1 1.31255 3.62903 1.92709
46 1 1.49043 3.87925 6.55839
47 1 0.0647601 6.01247 1.45948
48 1 0.110789 6.10784 6.67052
49 1 9.31353 4.02615 1.07734
50 1 9.41504 3.73097 6.77412
51 1 7.74091 6.17278 1.06073
52 1 7.74147 6.0725 6.66166
53 1 6.47384 8.65419 1.18256
54 1 6.52594 8.38822 6.04886
55 1 9.15067 8.39337 1.39418
56 1 9.06122 8.34541 6.53174
57 1 8.21601 1.75624 1.20207
58 1 7.93039 1.59516 5.96558
59 1 6.75559 3.84811 1.31518
60 1 6.40893 3.74994 6.23771
61 1 5.18433 6.24815 1.46518
62 1 5.33992 5.84648 6.26112
63 1 3.97912 8.36294 1.08401
64 1 3.92845 8.35016 6.43272
