LAMMPS (29 Sep 2021 - Update 1)
Reading data file ...
  triclinic box = (0.0000000 0.0000000 0.0000000) to (10.560000 9.1452283 10.460000) with tilt (0.0000000 0.0000000 0.0000000)
  1 by 1 by 1 MPI processor grid
  reading atoms ...
  64 atoms
  read_data CPU = 0.001 seconds
Neighbor list info ...
  update every 1 steps, delay 0 steps, check yes
  max neighbors/atom: 2000, page size: 100000
  master list distance cutoff = 7
  ghost atom cutoff = 7
  binsize = 3.5, bins = 4 3 3
  1 neighbor lists, perpetual/occasional/extra = 1 0 0
  (1) pair mlip, perpetual
      attributes: full, newton on
      pair build: full/bin/atomonly
      stencil: full/bin/3d
      bin: standard
Setting up Verlet run ...
  Unit style    : metal
  Current step  : 0
  Time step     : 0.001
Per MPI rank memory allocation (min/avg/max) = 3.089 | 3.089 | 3.089 Mbytes
Step Time Temp Volume Press 
       0            0         1380      1010.16   -10284.857 
       1        0.001    1378.9824      1010.16   -10249.236 
       2        0.002    1375.9306      1010.16   -10142.377 
       3        0.003    1370.8514      1010.16   -9964.5174 
       4        0.004    1363.7608      1010.16   -9716.1763 
       5        0.005     1354.684      1010.16    -9398.162 
       6        0.006    1343.6559      1010.16   -9013.0708 
       7        0.007     1330.721      1010.16   -8561.9182 
       8        0.008    1315.9341      1010.16   -8049.8107 
       9        0.009    1299.3605      1010.16   -7480.7903 
      10         0.01    1281.0746      1010.16   -6859.4748 
Loop time of 0.217425 on 1 procs for 10 steps with 64 atoms

Performance: 3.974 ns/day, 6.040 hours/ns, 45.993 timesteps/s
92.9% CPU use with 1 MPI tasks x no OpenMP threads

MPI task timing breakdown:
Section |  min time  |  avg time  |  max time  |%varavg| %total
---------------------------------------------------------------
Pair    | 0.21731    | 0.21731    | 0.21731    |   0.0 | 99.95
Neigh   | 0          | 0          | 0          |   0.0 |  0.00
Comm    | 4.5079e-05 | 4.5079e-05 | 4.5079e-05 |   0.0 |  0.02
Output  | 3.9849e-05 | 3.9849e-05 | 3.9849e-05 |   0.0 |  0.02
Modify  | 2.4047e-05 | 2.4047e-05 | 2.4047e-05 |   0.0 |  0.01
Other   |            | 1.046e-05  |            |       |  0.00

Nlocal:        64.0000 ave          64 max          64 min
Histogram: 1 0 0 0 0 0 0 0 0 0
Nghost:        886.000 ave         886 max         886 min
Histogram: 1 0 0 0 0 0 0 0 0 0
Neighs:         0.00000 ave           0 max           0 min
Histogram: 1 0 0 0 0 0 0 0 0 0
FullNghs:      6272.00 ave        6272 max        6272 min
Histogram: 1 0 0 0 0 0 0 0 0 0

Total # of neighbors = 6272
Ave neighs/atom = 98.000000
Neighbor list builds = 0
Dangerous builds = 0
Setting up Verlet run ...
  Unit style    : metal
  Current step  : 10
  Time step     : 0.001
Per MPI rank memory allocation (min/avg/max) = 3.089 | 3.089 | 3.089 Mbytes
Step Time Temp Volume Press 
      10         0.01    1281.0746      1010.16   -6859.4748 
      11        0.011    1261.1588      1010.16   -6187.6907 
      12        0.012    1239.7031      1010.16   -5476.3516 
      13        0.013    1216.8061      1010.16   -4727.9786 
      14        0.014    1192.5737      1010.16   -3946.5183 
      15        0.015    1167.1199      1010.16   -3134.0914 
      16        0.016    1140.5677      1010.16   -2292.0325 
      17        0.017    1113.0479      1010.16   -1423.2274 
      18        0.018    1084.6977      1010.16   -536.74876 
      19        0.019    1055.6615      1010.16    373.47277 
      20         0.02    1026.0907      1010.16    1301.7787 
      21        0.021    996.14098      1010.16     2240.889 
      22        0.022    965.97107      1010.16    3182.2817 
      23        0.023    935.74283      1010.16    4126.8181 
      24        0.024    905.62022      1010.16    5071.4131 
      25        0.025    875.76714      1010.16    6009.5444 
      26        0.026    846.34586      1010.16    6937.0142 
      27        0.027    817.51595      1010.16    7850.5747 
      28        0.028    789.43239      1010.16    8743.2054 
      29        0.029    762.24384      1010.16    9610.0249 
      30         0.03    736.09156      1010.16     10449.06 
      31        0.031    711.10787      1010.16    11255.632 
      32        0.032    687.41437      1010.16    12024.624 
      33        0.033    665.12063      1010.16    12753.146 
      34        0.034    644.32302      1010.16    13437.115 
      35        0.035    625.10384      1010.16    14075.487 
      36        0.036    607.53058      1010.16    14665.851 
      37        0.037    591.65494      1010.16    15205.353 
      38        0.038    577.51238      1010.16    15692.224 
      39        0.039    565.12208      1010.16    16126.834 
      40         0.04    554.48707      1010.16    16510.177 
      41        0.041    545.59436      1010.16    16841.944 
      42        0.042    538.41522      1010.16    17121.854 
      43        0.043    532.90599      1010.16    17351.267 
      44        0.044     529.0089      1010.16    17531.148 
      45        0.045    526.65332      1010.16    17662.959 
      46        0.046    525.75706      1010.16    17748.369 
      47        0.047    526.22766      1010.16    17789.963 
      48        0.048    527.96376      1010.16    17790.297 
      49        0.049    530.85657      1010.16    17752.159 
      50         0.05    534.79155      1010.16    17679.578 
      51        0.051     539.6499      1010.16    17574.916 
      52        0.052    545.30993      1010.16    17441.259 
      53        0.053    551.64885      1010.16    17283.758 
      54        0.054    558.54415      1010.16    17105.721 
      55        0.055    565.87474      1010.16    16910.455 
      56        0.056     573.5223      1010.16     16702.02 
      57        0.057    581.37232      1010.16    16485.102 
      58        0.058    589.31508      1010.16    16262.359 
      59        0.059    597.24599      1010.16    16034.232 
      60         0.06    605.06637      1010.16    15804.705 
      61        0.061    612.68445      1010.16    15576.587 
      62        0.062    620.01561      1010.16    15351.645 
      63        0.063    626.98249      1010.16    15132.012 
      64        0.064    633.51554      1010.16    14922.511 
      65        0.065    639.55328      1010.16    14725.337 
      66        0.066    645.04204      1010.16    14544.212 
      67        0.067    649.93599      1010.16    14379.483 
      68        0.068    654.19694      1010.16    14232.215 
      69        0.069     657.7942      1010.16    14103.283 
      70         0.07    660.70399      1010.16    13993.595 
      71        0.071    662.90923      1010.16    13903.584 
      72        0.072    664.39937      1010.16    13835.076 
      73        0.073    665.17006      1010.16     13787.94 
      74        0.074     665.2226      1010.16    13761.284 
      75        0.075    664.56356      1010.16    13756.297 
      76        0.076    663.20458      1010.16    13773.143 
      77        0.077    661.16189      1010.16    13811.205 
      78        0.078      658.456      1010.16    13870.037 
      79        0.079     655.1114      1010.16    13950.259 
      80         0.08    651.15619      1010.16    14051.366 
      81        0.081    646.62167      1010.16    14172.605 
      82        0.082    641.54223      1010.16     14312.79 
      83        0.083    635.95508      1010.16    14470.729 
      84        0.084    629.89977      1010.16    14645.231 
      85        0.085    623.41796      1010.16    14834.125 
      86        0.086    616.55318      1010.16    15036.073 
      87        0.087     609.3506      1010.16    15249.241 
      88        0.088    601.85659      1010.16    15472.382 
      89        0.089    594.11876      1010.16    15705.153 
      90         0.09    586.18589      1010.16    15944.779 
      91        0.091    578.10745      1010.16     16190.76 
      92        0.092    569.93335      1010.16     16440.45 
      93        0.093    561.71374      1010.16    16692.757 
      94        0.094    553.49879      1010.16    16947.665 
      95        0.095    545.33838      1010.16    17203.176 
      96        0.096    537.28165      1010.16    17456.669 
      97        0.097    529.37692      1010.16    17707.454 
      98        0.098    521.67121      1010.16    17951.562 
      99        0.099    514.20996      1010.16    18189.295 
     100          0.1    507.03728      1010.16    18419.737 
Loop time of 1.80825 on 1 procs for 90 steps with 64 atoms

Performance: 4.300 ns/day, 5.581 hours/ns, 49.772 timesteps/s
100.0% CPU use with 1 MPI tasks x no OpenMP threads

MPI task timing breakdown:
Section |  min time  |  avg time  |  max time  |%varavg| %total
---------------------------------------------------------------
Pair    | 1.8072     | 1.8072     | 1.8072     |   0.0 | 99.94
Neigh   | 0.00021072 | 0.00021072 | 0.00021072 |   0.0 |  0.01
Comm    | 0.00029826 | 0.00029826 | 0.00029826 |   0.0 |  0.02
Output  | 0.00032465 | 0.00032465 | 0.00032465 |   0.0 |  0.02
Modify  | 0.00016783 | 0.00016783 | 0.00016783 |   0.0 |  0.01
Other   |            | 7.112e-05  |            |       |  0.00

Nlocal:        64.0000 ave          64 max          64 min
Histogram: 1 0 0 0 0 0 0 0 0 0
Nghost:        886.000 ave         886 max         886 min
Histogram: 1 0 0 0 0 0 0 0 0 0
Neighs:         0.00000 ave           0 max           0 min
Histogram: 1 0 0 0 0 0 0 0 0 0
FullNghs:      5792.00 ave        5792 max        5792 min
Histogram: 1 0 0 0 0 0 0 0 0 0

Total # of neighbors = 5792
Ave neighs/atom = 90.500000
Neighbor list builds = 1
Dangerous builds = 0
Setting up Verlet run ...
  Unit style    : metal
  Current step  : 100
  Time step     : 0.001
Per MPI rank memory allocation (min/avg/max) = 3.089 | 3.089 | 3.089 Mbytes
Step Time Temp Volume Press 
     100          0.1    507.03728      1010.16    18419.737 
     110         0.11    459.14555      1010.16    20039.757 
     120         0.12    466.61038      1010.16    19981.597 
     130         0.13    518.02897      1010.16    18490.278 
     140         0.14    580.84684      1010.16    16589.856 
     150         0.15    629.10597      1010.16    15117.924 
     160         0.16    654.42091      1010.16    14486.556 
     170         0.17    657.67259      1010.16    14751.597 
     180         0.18    641.83803      1010.16    15822.956 
     190         0.19    614.56253      1010.16    17290.259 
     200          0.2     589.3752      1010.16    18633.244 
     210         0.21    576.91458      1010.16    19541.248 
     220         0.22    580.42364      1010.16    19953.777 
     230         0.23    600.55585      1010.16    19792.047 
     240         0.24    633.96042      1010.16    19210.912 
     250         0.25    666.41302      1010.16    18608.313 
     260         0.26    678.72799      1010.16    18487.512 
     270         0.27    664.68932      1010.16    18967.042 
     280         0.28    639.14064      1010.16    19690.353 
     290         0.29    625.59927      1010.16    20109.368 
     300          0.3    634.48375      1010.16    20066.648 
     310         0.31    657.01185      1010.16     19745.97 
     320         0.32    680.03072      1010.16    19429.877 
     330         0.33     703.7183      1010.16    19055.103 
     340         0.34    737.48182      1010.16    18431.627 
     350         0.35    776.23164      1010.16    17760.315 
     360         0.36    797.49532      1010.16    17485.574 
     370         0.37    785.11951      1010.16    18062.809 
     380         0.38    747.40825      1010.16    19223.711 
     390         0.39    710.06151      1010.16    20305.967 
     400          0.4    692.08459      1010.16    20795.483 
     410         0.41    691.07894      1010.16    20783.586 
     420         0.42    691.66203      1010.16    20705.364 
     430         0.43    683.70361      1010.16    20815.834 
     440         0.44    671.87294      1010.16    21054.538 
     450         0.45    669.96435      1010.16    20998.488 
     460         0.46    685.32112      1010.16    20389.048 
     470         0.47    710.68424      1010.16    19385.683 
     480         0.48    732.98433      1010.16    18333.146 
     490         0.49    746.69947      1010.16    17454.347 
     500          0.5    754.64974      1010.16    16775.377 
     510         0.51    756.95679      1010.16    16357.863 
     520         0.52    747.02062      1010.16    16455.719 
     530         0.53    718.30651      1010.16    17302.829 
     540         0.54    671.53566      1010.16    18798.831 
     550         0.55    619.81909      1010.16    20460.432 
     560         0.56    584.51507      1010.16    21581.074 
     570         0.57    580.35844      1010.16     21574.99 
     580         0.58    602.46822      1010.16    20522.979 
     590         0.59    630.01722      1010.16    19036.276 
     600          0.6    645.58939      1010.16    17825.393 
     610         0.61    645.03929      1010.16    17180.233 
     620         0.62    632.03989      1010.16    17146.592 
     630         0.63    614.25397      1010.16    17455.213 
     640         0.64    600.48126      1010.16    17737.507 
     650         0.65    594.11911      1010.16    17822.302 
     660         0.66    591.39392      1010.16     17750.84 
     670         0.67    589.27781      1010.16     17608.09 
     680         0.68    592.01773      1010.16    17272.004 
     690         0.69    606.63993      1010.16    16584.403 
     700          0.7    630.45407      1010.16    15681.919 
     710         0.71    646.77439      1010.16    15077.189 
     720         0.72     641.4853      1010.16    15122.772 
     730         0.73    619.41368      1010.16    15718.247 
     740         0.74     599.0009      1010.16    16266.425 
     750         0.75    594.21369      1010.16     16321.45 
     760         0.76    604.82501      1010.16     15839.49 
     770         0.77    624.42059      1010.16    15083.967 
     780         0.78    649.93346      1010.16    14288.893 
     790         0.79    676.97818      1010.16    13646.789 
     800          0.8    694.20011      1010.16    13500.589 
     810         0.81    692.10656      1010.16    13957.867 
     820         0.82    673.77385      1010.16     14932.45 
     830         0.83    651.08941      1010.16    16002.209 
     840         0.84    635.26909      1010.16    16820.688 
     850         0.85    634.35968      1010.16    17112.821 
     860         0.86    652.84136      1010.16    16862.579 
     870         0.87      687.384      1010.16    16182.524 
     880         0.88    726.75665      1010.16    15435.346 
     890         0.89    758.54198      1010.16    15044.394 
     900          0.9    773.63379      1010.16    15304.156 
     910         0.91    768.38018      1010.16    16235.487 
     920         0.92    749.45964      1010.16    17650.882 
     930         0.93    732.71531      1010.16    18974.869 
     940         0.94    731.43294      1010.16    19705.401 
     950         0.95    745.86945      1010.16    19862.607 
     960         0.96    763.89471      1010.16    19788.401 
     970         0.97    773.83133      1010.16    19804.448 
     980         0.98    777.53849      1010.16    19825.797 
     990         0.99    784.56374      1010.16      19551.5 
    1000            1    794.61141      1010.16    19006.958 
Loop time of 17.8208 on 1 procs for 900 steps with 64 atoms

Performance: 4.363 ns/day, 5.500 hours/ns, 50.503 timesteps/s
100.0% CPU use with 1 MPI tasks x no OpenMP threads

MPI task timing breakdown:
Section |  min time  |  avg time  |  max time  |%varavg| %total
---------------------------------------------------------------
Pair    | 17.812     | 17.812     | 17.812     |   0.0 | 99.95
Neigh   | 0.0030895  | 0.0030895  | 0.0030895  |   0.0 |  0.02
Comm    | 0.0029844  | 0.0029844  | 0.0029844  |   0.0 |  0.02
Output  | 0.00040683 | 0.00040683 | 0.00040683 |   0.0 |  0.00
Modify  | 0.0016144  | 0.0016144  | 0.0016144  |   0.0 |  0.01
Other   |            | 0.0006821  |            |       |  0.00

Nlocal:        64.0000 ave          64 max          64 min
Histogram: 1 0 0 0 0 0 0 0 0 0
Nghost:        861.000 ave         861 max         861 min
Histogram: 1 0 0 0 0 0 0 0 0 0
Neighs:         0.00000 ave           0 max           0 min
Histogram: 1 0 0 0 0 0 0 0 0 0
FullNghs:      5818.00 ave        5818 max        5818 min
Histogram: 1 0 0 0 0 0 0 0 0 0

Total # of neighbors = 5818
Ave neighs/atom = 90.906250
Neighbor list builds = 15
Dangerous builds = 0
Setting up Verlet run ...
  Unit style    : metal
  Current step  : 1000
  Time step     : 0.001
Per MPI rank memory allocation (min/avg/max) = 3.089 | 3.089 | 3.089 Mbytes
Step Time Temp Volume Press 
    1000            1    794.61141      1010.16    19006.958 
    1100          1.1    651.17468      1010.16    18459.623 
    1200          1.2    571.63109      1010.16    12728.903 
    1300          1.3    582.74407      1010.16    11943.798 
    1400          1.4    664.84458      1010.16    20860.089 
    1500          1.5    624.44574      1010.16    25639.709 
    1600          1.6    672.78503      1010.16    20104.244 
    1700          1.7    665.18641      1010.16    13440.622 
    1800          1.8    695.87706      1010.16    14689.275 
    1900          1.9     694.8396      1010.16    22261.555 
    2000            2    709.82867      1010.16    20161.287 
    2100          2.1    728.84165      1010.16    17119.048 
    2200          2.2    711.36738      1010.16     15903.21 
    2300          2.3    723.74653      1010.16    14735.699 
    2400          2.4    701.71784      1010.16    13768.113 
    2500          2.5     598.7554      1010.16    11187.285 
    2600          2.6    622.01281      1010.16    13148.423 
    2700          2.7    732.13767      1010.16    14315.621 
    2800          2.8    648.52549      1010.16    19914.869 
    2900          2.9    715.32793      1010.16    19858.938 
    3000            3    733.76755      1010.16    22017.895 
    3100          3.1    735.48579      1010.16    21702.371 
    3200          3.2    673.79904      1010.16    17686.129 
    3300          3.3    682.01883      1010.16    14766.512 
    3400          3.4     601.9148      1010.16    20293.522 
    3500          3.5    758.44616      1010.16    16958.962 
    3600          3.6     686.1673      1010.16     20782.78 
    3700          3.7    697.36645      1010.16    20326.389 
    3800          3.8    697.03689      1010.16    17280.402 
    3900          3.9    616.62954      1010.16    13891.068 
    4000            4    584.04358      1010.16    17104.587 
    4100          4.1    789.91065      1010.16    16687.003 
    4200          4.2    702.74471      1010.16    19248.329 
    4300          4.3    623.24947      1010.16    20249.983 
    4400          4.4    632.20383      1010.16    16598.646 
    4500          4.5    626.65427      1010.16    15106.426 
    4600          4.6    744.92063      1010.16    14899.145 
    4700          4.7    637.72674      1010.16    28491.409 
    4800          4.8    899.79029      1010.16    18463.339 
    4900          4.9    731.37131      1010.16    16955.783 
    5000            5    604.89275      1010.16    18343.516 
    5100          5.1    595.61969      1010.16    20393.645 
    5200          5.2    657.48513      1010.16    22888.894 
    5300          5.3    785.88027      1010.16    21149.237 
    5400          5.4     731.8024      1010.16    15508.736 
    5500          5.5    620.01823      1010.16    14808.429 
    5600          5.6    715.78439      1010.16    12236.693 
    5700          5.7     625.6478      1010.16    20155.012 
    5800          5.8    761.00567      1010.16    20192.017 
    5900          5.9    680.90433      1010.16    20951.263 
    6000            6    719.20027      1010.16    17575.445 
    6100          6.1    680.11793      1010.16    16797.093 
    6200          6.2    645.68168      1010.16    14558.136 
    6300          6.3    558.27151      1010.16    15814.579 
    6400          6.4    614.91459      1010.16    13059.867 
    6500          6.5    667.77866      1010.16    20110.515 
    6600          6.6    778.25024      1010.16    17008.689 
    6700          6.7    665.47088      1010.16    20154.036 
    6800          6.8    705.47755      1010.16    18243.491 
    6900          6.9    763.55031      1010.16    20982.159 
    7000            7    800.10924      1010.16    18617.154 
    7100          7.1    658.34618      1010.16    20894.976 
    7200          7.2    672.53048      1010.16    15644.475 
    7300          7.3    675.54449      1010.16    12958.089 
    7400          7.4    647.90677      1010.16    14835.111 
    7500          7.5    625.88144      1010.16    25250.824 
    7600          7.6    788.71526      1010.16    20810.503 
    7700          7.7    701.42004      1010.16    17596.863 
    7800          7.8    706.42837      1010.16    15626.917 
    7900          7.9     650.4565      1010.16    20426.521 
    8000            8    904.32743      1010.16    19320.414 
    8100          8.1    763.89908      1010.16     23430.97 
    8200          8.2      749.756      1010.16    18548.399 
    8300          8.3    738.58677      1010.16    14419.749 
    8400          8.4    627.67345      1010.16    16488.469 
    8500          8.5     577.4811      1010.16    19249.907 
    8600          8.6    741.22385      1010.16    20510.973 
    8700          8.7    739.54263      1010.16    22814.972 
    8800          8.8    751.42987      1010.16    19189.137 
    8900          8.9    681.85331      1010.16    17217.326 
    9000            9    695.08408      1010.16    16373.324 
    9100          9.1    770.70289      1010.16    13038.206 
    9200          9.2    585.04999      1010.16    14694.187 
    9300          9.3    570.97406      1010.16    14858.037 
    9400          9.4    695.04465      1010.16      19355.2 
    9500          9.5    836.01976      1010.16    16537.879 
    9600          9.6    659.89012      1010.16    19460.856 
    9700          9.7    614.60919      1010.16    16614.955 
    9800          9.8    576.22601      1010.16    14940.628 
    9900          9.9    591.83659      1010.16    17108.222 
   10000           10    753.58894      1010.16     20299.16 
Loop time of 177.528 on 1 procs for 9000 steps with 64 atoms

Performance: 4.380 ns/day, 5.479 hours/ns, 50.696 timesteps/s
100.0% CPU use with 1 MPI tasks x no OpenMP threads

MPI task timing breakdown:
Section |  min time  |  avg time  |  max time  |%varavg| %total
---------------------------------------------------------------
Pair    | 177.44     | 177.44     | 177.44     |   0.0 | 99.95
Neigh   | 0.033139   | 0.033139   | 0.033139   |   0.0 |  0.02
Comm    | 0.030108   | 0.030108   | 0.030108   |   0.0 |  0.02
Output  | 0.00058518 | 0.00058518 | 0.00058518 |   0.0 |  0.00
Modify  | 0.01541    | 0.01541    | 0.01541    |   0.0 |  0.01
Other   |            | 0.006703   |            |       |  0.00

Nlocal:        64.0000 ave          64 max          64 min
Histogram: 1 0 0 0 0 0 0 0 0 0
Nghost:        881.000 ave         881 max         881 min
Histogram: 1 0 0 0 0 0 0 0 0 0
Neighs:         0.00000 ave           0 max           0 min
Histogram: 1 0 0 0 0 0 0 0 0 0
FullNghs:      5822.00 ave        5822 max        5822 min
Histogram: 1 0 0 0 0 0 0 0 0 0

Total # of neighbors = 5822
Ave neighs/atom = 90.968750
Neighbor list builds = 163
Dangerous builds = 0
System init for write_data ...
Total wall time: 0:03:17
