LAMMPS data file via write_data, version 29 Sep 2021, timestep = 10000

64 atoms
1 atom types

0 10.560000000000285 xlo xhi
0 9.145228263963919 ylo yhi
0 10.46 zlo zhi
0 0 0 xy xz yz

Masses

1 65.38

Atoms # atomic

1 1 1.2946405186735686 5.806442979495624 4.031169223368716 0 0 0
2 1 1.2099729302475415 5.7621257693945935 9.15195866265368 0 0 0
3 1 10.49288750123358 7.977002230710355 3.9861882855074877 -1 0 0
4 1 0.10021571287022271 8.11432945537432 8.70248253098503 0 0 0
5 1 6.521947759278291 0.7770051739805897 4.00804215808681 0 0 0
6 1 6.55763654688248 1.0219521190948586 9.354692074179273 0 0 0
7 1 5.186862965142637 3.305096621861663 3.810112599168357 0 0 0
8 1 5.462760798779529 3.327150324344418 9.173600589298353 0 0 0
9 1 1.2868986367399107 1.1241385712605094 3.877423577320364 0 0 0
10 1 1.4324082632774617 1.270893811363479 8.866488096454937 0 0 0
11 1 10.553350951146374 3.4248608536474885 3.815368512571765 -1 0 0
12 1 0.09730645813677971 3.437069585832921 8.88281580100077 0 0 0
13 1 3.7966110567964426 1.1026530660186338 3.5182401150091693 0 0 0
14 1 3.944258725617191 1.125359822122344 9.996855160411283 0 0 0
15 1 2.550863770331624 3.549603709259612 3.974923683096934 0 0 0
16 1 2.6314809485107453 3.6846135351830265 9.636543044528214 0 0 0
17 1 6.4430172110843005 5.598976240592571 4.015634983737841 0 0 0
18 1 6.59924797004955 5.678725337437852 8.867239530833926 0 0 0
19 1 5.031069172028009 8.07548692909807 3.5454829015593745 0 0 0
20 1 5.260853802824741 8.187257320842159 9.341384508778022 0 0 0
21 1 9.2548448349821 5.882440375193952 3.990057727186008 0 0 0
22 1 9.192383412939684 5.72852312005845 9.639501661731853 0 0 0
23 1 7.705254856498962 7.697476561325509 3.857280907027468 0 0 0
24 1 8.097272240624118 7.972134214957363 8.712883857287114 0 0 0
25 1 4.028497322345469 5.785336947631462 3.7037902055919463 0 0 0
26 1 4.223291263155073 5.736877774863883 9.364609690605388 0 0 0
27 1 2.4207859960513334 7.926696696592868 4.457915930281677 0 0 0
28 1 2.7682519934335312 8.164151921469792 9.283869005565622 0 0 0
29 1 9.1191603482378 1.0532835538486427 3.8914373614383324 0 0 0
30 1 9.178741183192361 1.1023171939190195 8.767626719828144 0 0 0
31 1 7.965347443224127 3.393283976052893 4.194273154452939 0 0 0
32 1 8.25065068434185 3.579642784075702 8.725868408981029 0 0 0
33 1 5.266549820000555 1.882398409842715 1.2653065114507367 0 0 0
34 1 5.204691719864636 0.4462932327844936 6.254426983187716 0 0 0
35 1 4.44817823888025 4.45038361624278 1.1878560054568557 0 0 0
36 1 3.9763102885857102 2.7358517159338906 6.826559587196781 0 0 0
37 1 2.7181235605862204 6.516051939221259 1.2191763690110122 0 0 0
38 1 2.7003497646370995 4.9092515530900185 6.6629995091878955 0 0 0
39 1 1.0066920190683142 8.430061688795162 0.9552042409131425 0 0 0
40 1 1.5419316526501237 7.306892948703723 6.632057150258539 0 0 0
41 1 10.291704107689641 1.7875046281400795 1.062457894387298 -1 0 0
42 1 10.524784337310345 0.43441621431029304 6.47005180524439 -1 0 0
43 1 2.663836983392933 2.034068457766825 1.4279048483480348 0 0 0
44 1 2.775283944297629 0.5357648864182458 6.721318403427925 0 0 0
45 1 1.3174519908384479 4.139646733779909 1.712049099366433 0 0 0
46 1 1.4297687061259596 2.649743619576588 6.161016594397407 0 0 0
47 1 10.415823860709345 6.207633287967574 1.4089365840618175 -1 0 0
48 1 0.2624792460843978 4.989694909198929 6.506987934524884 0 0 0
49 1 9.127491216558285 3.88700210379074 1.4778022209373407 0 0 0
50 1 9.44337089085656 2.8053111873503056 6.243417186519166 0 0 0
51 1 7.8891370510577525 6.296479596774095 1.826376153148384 0 0 0
52 1 7.934630742886032 5.118791635817437 6.233949525806767 0 0 0
53 1 6.431907358306152 8.681438686562386 1.2671011945348887 0 0 0
54 1 6.678293765098204 7.268926399243644 6.231529792826927 0 0 0
55 1 8.992158065096184 8.800721049478557 0.5693209299335853 0 0 0
56 1 9.295312655506812 7.427779917869627 6.552619974868783 0 0 0
57 1 7.734502524576459 1.793450480515594 1.8528796098307618 0 0 0
58 1 7.862979431726613 0.5423319489171529 6.28843142753068 0 0 0
59 1 6.8155163603632865 4.044725255378588 1.7392897650021173 0 0 0
60 1 6.617724779095965 2.8078069313506346 6.73635908741137 0 0 0
61 1 5.386612885593676 6.578837829469225 0.9856588202925939 0 0 0
62 1 5.26898522756388 5.03518875438745 6.6259998273670035 0 0 0
63 1 3.7979410884027534 8.63804383657177 1.3257378599979652 0 0 0
64 1 4.0007024379201335 7.091902414691774 7.143456435048051 0 0 0

Velocities

1 3.9268339367599103 2.1982361450218595 -5.788015382743254
2 -4.6401816996678775 -4.148257755298312 0.9930979239211359
3 0.1519136173883909 0.8090665940250618 3.5772516948928996
4 0.352178930514732 -0.08002669475588704 3.6538101113030828
5 0.5620073328233066 0.037413593844502234 0.798969736368398
6 -0.02906054715264173 1.779521886293533 -0.30987713378402876
7 0.3766122036458169 -1.545569063429771 -2.179552943015917
8 -5.835010171098969 4.57269826793074 1.2933072446593616
9 0.6790335670482507 0.24094884019938265 3.928943165187512
10 -2.1136825898817313 3.6547309173823592 -1.031341017823504
11 2.1962411766294605 2.8467159604805197 2.6699776381235374
12 -2.9930346162529076 -5.499101161013143 -2.1975982760330846
13 0.8784364094595063 5.724310952689403 -1.3968204906500585
14 -4.103596402494994 7.9083434399281405 -1.104185777576558
15 -1.3890609119792192 0.2041997838850158 3.192692522851518
16 2.9337905626225314 -3.128010328579728 4.4170536670943275
17 -0.25214514149144795 2.121020685559428 4.093978625149771
18 -1.8000461795967524 -2.033538776246369 3.0366380505844988
19 1.3036634594650962 -4.432111339017332 1.2868645334858844
20 -1.6148289121597625 0.01930147181196378 2.306242325731877
21 4.398771796934382 -0.42447033292060227 -6.083922256481761
22 -0.2175491501465853 -1.0868031401776634 5.631292762273998
23 0.8511041114542397 2.5439734088149515 -4.431068941090978
24 0.6246778287020162 0.7543977759316629 1.0083809885870265
25 -1.0952660278222617 0.0361820603245557 -0.26508875004376126
26 0.31127605596696567 5.925842045823721 -2.101353526173803
27 -4.066400126361931 -2.8991467501781347 -4.849742357170171
28 -0.03153045108672681 4.3681716616161035 -5.012148336221168
29 3.302958333214038 -1.5549894140847058 0.6242458624156132
30 2.9091793681333344 -2.2726501985342584 0.7824199138751194
31 3.6798513650720164 1.4116582173042507 5.989674907576685
32 1.02699683239347 -2.3141097260562242 0.2540019497890925
33 -2.8761317447371484 -2.1415149173588066 0.03899244230602384
34 3.5068941305657115 -6.923564268898083 -0.6526905609907062
35 0.24955010629176544 -1.0423259301360701 -1.5274743188964244
36 5.227221426451835 7.062301286722347 -5.871996928505732
37 6.117129238380524 3.451435189115839 -2.039077064374405
38 4.177833502182058 -6.8398270324278005 -1.3277951185562533
39 -2.5083026548470437 1.3903963768791539 5.298233304260975
40 3.550618198697314 1.2110993704792643 -3.3695493007470048
41 1.9196392465860024 -1.0276835228469108 -2.3421411941816963
42 -2.115315676957163 0.05555428320913181 -0.43332703315884646
43 -3.0448546282927436 -3.508786977059767 -5.478776513551005
44 -1.8368717290398848 -3.1716775260590038 -4.9350538693507495
45 2.6018212111975374 2.0708610064194413 4.507788327501247
46 -1.74985818729951 -0.34000704093467293 0.1545683853578992
47 3.8808176759139146 0.8348114261513395 -5.815059200643414
48 -2.3959367635527293 -4.077162355817416 -0.34226458903043244
49 -5.854918847855249 2.7678688464108427 1.2689702954342705
50 2.8846806856406118 2.55953220446217 2.089728206146236
51 -0.4659697728411776 -2.8258504387761927 -2.898178116175432
52 1.190043910302855 1.724273380992679 1.0714011851520178
53 -0.21425248608452752 -1.5137841331690294 -3.167058819200098
54 0.32204977388314926 0.8982432813343034 0.5591625115892271
55 -6.208404400367382 0.08389291852581093 -5.456580040325025
56 -0.24865761283376578 1.0784301673072954 -1.014963126384888
57 -2.539897430882306 -4.56556027256563 1.4561864348018947
58 -0.22093722741989655 -0.8671574689373057 0.4244437016595242
59 -4.727286044850225 -2.8150867703448488 2.1317270161000947
60 -1.4579635906864097 1.0432533040425032 6.187046048043198
61 -1.5461667463580262 0.2944679311362581 5.303103804080752
62 0.03198339876814869 -0.9970453922446517 0.6930229422539912
63 0.44140331289873624 -2.8535121766759386 -2.3062360688840835
64 3.62590576611148 3.246176222488743 5.005718823206103
