LAMMPS (29 Sep 2021 - Update 1)
Reading data file ...
  triclinic box = (0.0000000 0.0000000 0.0000000) to (10.560000 9.1452283 10.100000) with tilt (0.0000000 0.0000000 0.0000000)
  1 by 1 by 1 MPI processor grid
  reading atoms ...
  64 atoms
  read_data CPU = 0.001 seconds
Neighbor list info ...
  update every 1 steps, delay 0 steps, check yes
  max neighbors/atom: 2000, page size: 100000
  master list distance cutoff = 7
  ghost atom cutoff = 7
  binsize = 3.5, bins = 4 3 3
  1 neighbor lists, perpetual/occasional/extra = 1 0 0
  (1) pair mlip, perpetual
      attributes: full, newton on
      pair build: full/bin/atomonly
      stencil: full/bin/3d
      bin: standard
Setting up Verlet run ...
  Unit style    : metal
  Current step  : 0
  Time step     : 0.001
Per MPI rank memory allocation (min/avg/max) = 3.089 | 3.089 | 3.089 Mbytes
Step Time Temp Volume Press 
       0            0         1380    975.39347    6764.5896 
       1        0.001    1379.0785    975.39347    6796.2453 
       2        0.002    1376.3168    975.39347    6891.1327 
       3        0.003    1371.7239    975.39347    7048.9775 
       4        0.004    1365.3161    975.39347    7266.6392 
       5        0.005     1357.118    975.39347    7540.9585 
       6        0.006    1347.1619    975.39347    7869.2866 
       7        0.007    1335.4868    975.39347    8249.7643 
       8        0.008    1322.1381    975.39347     8683.722 
       9        0.009    1307.1673    975.39347    9169.8104 
      10         0.01    1290.6321    975.39347    9708.0094 
Loop time of 0.212467 on 1 procs for 10 steps with 64 atoms

Performance: 4.067 ns/day, 5.902 hours/ns, 47.066 timesteps/s
98.3% CPU use with 1 MPI tasks x no OpenMP threads

MPI task timing breakdown:
Section |  min time  |  avg time  |  max time  |%varavg| %total
---------------------------------------------------------------
Pair    | 0.21235    | 0.21235    | 0.21235    |   0.0 | 99.95
Neigh   | 0          | 0          | 0          |   0.0 |  0.00
Comm    | 3.3176e-05 | 3.3176e-05 | 3.3176e-05 |   0.0 |  0.02
Output  | 4.3483e-05 | 4.3483e-05 | 4.3483e-05 |   0.0 |  0.02
Modify  | 2.6679e-05 | 2.6679e-05 | 2.6679e-05 |   0.0 |  0.01
Other   |            | 1.147e-05  |            |       |  0.01

Nlocal:        64.0000 ave          64 max          64 min
Histogram: 1 0 0 0 0 0 0 0 0 0
Nghost:        886.000 ave         886 max         886 min
Histogram: 1 0 0 0 0 0 0 0 0 0
Neighs:         0.00000 ave           0 max           0 min
Histogram: 1 0 0 0 0 0 0 0 0 0
FullNghs:      6272.00 ave        6272 max        6272 min
Histogram: 1 0 0 0 0 0 0 0 0 0

Total # of neighbors = 6272
Ave neighs/atom = 98.000000
Neighbor list builds = 0
Dangerous builds = 0
Setting up Verlet run ...
  Unit style    : metal
  Current step  : 10
  Time step     : 0.001
Per MPI rank memory allocation (min/avg/max) = 3.089 | 3.089 | 3.089 Mbytes
Step Time Temp Volume Press 
      10         0.01    1290.6321    975.39347    9708.0094 
      11        0.011    1272.5966    975.39347     10298.18 
      12        0.012    1253.1308    975.39347    10938.503 
      13        0.013    1232.3111    975.39347    11626.465 
      14        0.014      1210.22    975.39347    12360.608 
      15        0.015    1186.9457    975.39347    13138.042 
      16        0.016    1162.5822    975.39347    13956.083 
      17        0.017    1137.2287    975.39347    14811.528 
      18        0.018    1110.9892    975.39347    15701.426 
      19        0.019    1083.9725    975.39347    16622.861 
      20         0.02    1056.2909    975.39347    17572.416 
      21        0.021    1028.0603    975.39347    18546.531 
      22        0.022     999.3991    975.39347    19540.466 
      23        0.023    970.42727    975.39347    20549.435 
      24        0.024    941.26595    975.39347    21568.478 
      25        0.025    912.03708    975.39347    22595.675 
      26        0.026     882.8626    975.39347    23626.204 
      27        0.027    853.86326    975.39347    24656.745 
      28        0.028    825.15767    975.39347    25682.344 
      29        0.029    796.86111    975.39347    26698.539 
      30         0.03     769.0851    975.39347    27702.837 
      31        0.031    741.93643    975.39347    28690.592 
      32        0.032    715.51578    975.39347    29656.893 
      33        0.033     689.9173    975.39347    30599.476 
      34        0.034     665.2285    975.39347    31517.544 
      35        0.035    641.52899    975.39347    32406.379 
      36        0.036    618.88944    975.39347    33262.716 
      37        0.037    597.37132    975.39347    34083.761 
      38        0.038    577.02688    975.39347    34868.897 
      39        0.039      557.899    975.39347    35616.888 
      40         0.04    540.02059    975.39347    36325.038 
      41        0.041    523.41469    975.39347    36992.956 
      42        0.042    508.09477    975.39347    37620.101 
      43        0.043    494.06462    975.39347    38205.226 
      44        0.044    481.31879    975.39347     38748.43 
      45        0.045    469.84321    975.39347    39250.335 
      46        0.046    459.61569    975.39347     39710.27 
      47        0.047    450.60634    975.39347     40127.27 
      48        0.048    442.77842    975.39347    40504.007 
      49        0.049    436.08891    975.39347    40840.021 
      50         0.05    430.48934    975.39347    41136.616 
      51        0.051    425.92699    975.39347    41394.325 
      52        0.052    422.34549    975.39347    41615.771 
      53        0.053     419.6857    975.39347    41803.024 
      54        0.054    417.88645    975.39347    41957.334 
      55        0.055    416.88533    975.39347    42080.621 
      56        0.056    416.61938    975.39347    42174.934 
      57        0.057    417.02587    975.39347     42241.68 
      58        0.058    418.04288    975.39347    42282.485 
      59        0.059    419.60983    975.39347    42300.076 
      60         0.06    421.66796    975.39347     42295.51 
      61        0.061    424.16068    975.39347    42269.292 
      62        0.062    427.03399    975.39347    42225.419 
      63        0.063    430.23686    975.39347    42164.209 
      64        0.064    433.72108    975.39347      42088.1 
      65        0.065    437.44181    975.39347    41998.844 
      66        0.066    441.35784    975.39347    41898.517 
      67        0.067    445.43139    975.39347    41787.425 
      68        0.068    449.62811    975.39347    41667.128 
      69        0.069    453.91702    975.39347    41539.125 
      70         0.07    458.27051    975.39347    41405.339 
      71        0.071    462.66405    975.39347     41265.88 
      72        0.072    467.07614    975.39347    41122.873 
      73        0.073    471.48824    975.39347    40976.974 
      74        0.074    475.88445    975.39347    40828.955 
      75        0.075    480.25103    975.39347    40677.854 
      76        0.076    484.57611    975.39347    40526.298 
      77        0.077    488.84999    975.39347    40375.035 
      78        0.078    493.06497    975.39347    40224.985 
      79        0.079    497.21487    975.39347    40076.396 
      80         0.08    501.29469    975.39347     39929.38 
      81        0.081    505.30032    975.39347    39784.534 
      82        0.082    509.22817    975.39347    39640.935 
      83        0.083    513.07504    975.39347     39498.61 
      84        0.084    516.83854    975.39347    39358.973 
      85        0.085    520.51693    975.39347    39222.061 
      86        0.086    524.10888    975.39347    39088.067 
      87        0.087    527.61306    975.39347    38958.245 
      88        0.088    531.02795    975.39347    38832.511 
      89        0.089    534.35191    975.39347    38710.993 
      90         0.09    537.58315    975.39347    38593.978 
      91        0.091    540.71965    975.39347    38481.429 
      92        0.092    543.75891    975.39347     38372.78 
      93        0.093    546.69815    975.39347    38268.997 
      94        0.094    549.53462    975.39347     38169.47 
      95        0.095     552.2655    975.39347    38073.872 
      96        0.096    554.88768    975.39347    37982.633 
      97        0.097    557.39782    975.39347    37896.322 
      98        0.098     559.7927    975.39347    37815.144 
      99        0.099    562.06926    975.39347    37739.357 
     100          0.1    564.22485    975.39347    37668.132 
Loop time of 1.87878 on 1 procs for 90 steps with 64 atoms

Performance: 4.139 ns/day, 5.799 hours/ns, 47.903 timesteps/s
100.0% CPU use with 1 MPI tasks x no OpenMP threads

MPI task timing breakdown:
Section |  min time  |  avg time  |  max time  |%varavg| %total
---------------------------------------------------------------
Pair    | 1.8776     | 1.8776     | 1.8776     |   0.0 | 99.94
Neigh   | 0.00021545 | 0.00021545 | 0.00021545 |   0.0 |  0.01
Comm    | 0.00029515 | 0.00029515 | 0.00029515 |   0.0 |  0.02
Output  | 0.00036784 | 0.00036784 | 0.00036784 |   0.0 |  0.02
Modify  | 0.00017842 | 0.00017842 | 0.00017842 |   0.0 |  0.01
Other   |            | 7.87e-05   |            |       |  0.00

Nlocal:        64.0000 ave          64 max          64 min
Histogram: 1 0 0 0 0 0 0 0 0 0
Nghost:        886.000 ave         886 max         886 min
Histogram: 1 0 0 0 0 0 0 0 0 0
Neighs:         0.00000 ave           0 max           0 min
Histogram: 1 0 0 0 0 0 0 0 0 0
FullNghs:      6030.00 ave        6030 max        6030 min
Histogram: 1 0 0 0 0 0 0 0 0 0

Total # of neighbors = 6030
Ave neighs/atom = 94.218750
Neighbor list builds = 1
Dangerous builds = 0
Setting up Verlet run ...
  Unit style    : metal
  Current step  : 100
  Time step     : 0.001
Per MPI rank memory allocation (min/avg/max) = 3.089 | 3.089 | 3.089 Mbytes
Step Time Temp Volume Press 
     100          0.1    564.22485    975.39347    37668.132 
     110         0.11    578.95441    975.39347    37172.453 
     120         0.12    584.31685    975.39347    36976.701 
     130         0.13    592.03578    975.39347    36701.523 
     140         0.14    612.82655    975.39347    36077.883 
     150         0.15    640.53116    975.39347    35331.968 
     160         0.16     658.9912    975.39347    34950.431 
     170         0.17    661.74676    975.39347    35113.537 
     180         0.18    654.78469    975.39347    35644.541 
     190         0.19    649.15511    975.39347    36142.362 
     200          0.2    654.93688    975.39347    36196.449 
     210         0.21    672.05919    975.39347     35864.48 
     220         0.22    688.79323    975.39347    35441.959 
     230         0.23    695.33518    975.39347    35129.231 
     240         0.24     698.2607    975.39347    34886.085 
     250         0.25    716.50731    975.39347    34297.712 
     260         0.26    755.56526    975.39347    33245.299 
     270         0.27    792.75513    975.39347    32336.267 
     280         0.28    798.43768    975.39347    32432.496 
     290         0.29    768.25201    975.39347    33636.373 
     300          0.3     727.0347    975.39347    35222.865 
     310         0.31    703.91184    975.39347    36368.794 
     320         0.32    707.64666    975.39347    36655.544 
     330         0.33    723.24023    975.39347     36353.93 
     340         0.34    729.27525    975.39347    36080.483 
     350         0.35    715.23753    975.39347    36396.797 
     360         0.36    683.54621    975.39347    37388.723 
     370         0.37    641.84035    975.39347    38754.923 
     380         0.38    599.60767    975.39347    40224.708 
     390         0.39    572.89223    975.39347    41086.796 
     400          0.4    587.06364    975.39347    40508.516 
     410         0.41     654.9492    975.39347    38135.194 
     420         0.42    745.42228    975.39347     34973.83 
     430         0.43    808.69601    975.39347    32711.738 
     440         0.44    818.71261    975.39347    32280.378 
     450         0.45    779.86995    975.39347    33420.013 
     460         0.46    719.73735    975.39347    35252.521 
     470         0.47    675.06246    975.39347    36524.431 
     480         0.48    667.41551    975.39347    36519.897 
     490         0.49    686.41728    975.39347    35463.825 
     500          0.5    701.65133    975.39347    34367.107 
     510         0.51    695.03597    975.39347    33858.952 
     520         0.52    674.09723    975.39347     33864.12 
     530         0.53    649.61347    975.39347    34173.482 
     540         0.54    616.85539    975.39347    34860.411 
     550         0.55    571.18752    975.39347    35953.224 
     560         0.56    528.95433    975.39347      36840.6 
     570         0.57    517.82838    975.39347    36750.341 
     580         0.58    546.04467    975.39347    35502.527 
     590         0.59    593.06522    975.39347    33700.887 
     600          0.6    632.38503    975.39347    32162.196 
     610         0.61    650.84887    975.39347    31306.567 
     620         0.62    651.17383    975.39347    31032.933 
     630         0.63    645.36816    975.39347    31012.118 
     640         0.64     645.2654    975.39347    30838.719 
     650         0.65    655.42692    975.39347    30411.497 
     660         0.66    670.65829    975.39347    29862.205 
     670         0.67    679.83654    975.39347    29459.225 
     680         0.68    676.51385    975.39347     29435.62 
     690         0.69    665.50513    975.39347    29761.984 
     700          0.7     657.3972    975.39347    30101.598 
     710         0.71    658.39664    975.39347    30250.722 
     720         0.72    666.32816    975.39347    30265.924 
     730         0.73    675.49956    975.39347    30230.748 
     740         0.74    683.84828    975.39347    30220.487 
     750         0.75    693.00593    975.39347    30233.272 
     760         0.76    702.68892    975.39347    30360.227 
     770         0.77    707.45697    975.39347     30829.77 
     780         0.78    701.28114    975.39347    31782.082 
     790         0.79    685.47482    975.39347    33070.786 
     800          0.8     672.5165    975.39347    34284.018 
     810         0.81    676.29562    975.39347    34883.352 
     820         0.82    697.21431    975.39347    34959.866 
     830         0.83     722.7219    975.39347    35052.661 
     840         0.84    736.22226    975.39347    35644.376 
     850         0.85    725.28291    975.39347    36991.604 
     860         0.86    694.00107    975.39347    38883.434 
     870         0.87    665.75596    975.39347    40588.587 
     880         0.88    663.60152    975.39347    41289.526 
     890         0.89    691.45438    975.39347     40744.52 
     900          0.9     737.6336    975.39347    39423.189 
     910         0.91    788.62688    975.39347    37927.031 
     920         0.92    830.20929    975.39347    36831.218 
     930         0.93    845.31958    975.39347    36650.216 
     940         0.94    827.98455    975.39347    37491.428 
     950         0.95    794.24782    975.39347    38811.057 
     960         0.96    766.64441    975.39347    39846.912 
     970         0.97    751.53548    975.39347    40236.544 
     980         0.98    742.96985    975.39347     40100.01 
     990         0.99    740.56652    975.39347    39591.339 
    1000            1    750.63694    975.39347    38739.064 
Loop time of 18.6477 on 1 procs for 900 steps with 64 atoms

Performance: 4.170 ns/day, 5.755 hours/ns, 48.263 timesteps/s
100.0% CPU use with 1 MPI tasks x no OpenMP threads

MPI task timing breakdown:
Section |  min time  |  avg time  |  max time  |%varavg| %total
---------------------------------------------------------------
Pair    | 18.639     | 18.639     | 18.639     |   0.0 | 99.95
Neigh   | 0.0032482  | 0.0032482  | 0.0032482  |   0.0 |  0.02
Comm    | 0.0029415  | 0.0029415  | 0.0029415  |   0.0 |  0.02
Output  | 0.00042658 | 0.00042658 | 0.00042658 |   0.0 |  0.00
Modify  | 0.0015541  | 0.0015541  | 0.0015541  |   0.0 |  0.01
Other   |            | 0.0006905  |            |       |  0.00

Nlocal:        64.0000 ave          64 max          64 min
Histogram: 1 0 0 0 0 0 0 0 0 0
Nghost:        886.000 ave         886 max         886 min
Histogram: 1 0 0 0 0 0 0 0 0 0
Neighs:         0.00000 ave           0 max           0 min
Histogram: 1 0 0 0 0 0 0 0 0 0
FullNghs:      6016.00 ave        6016 max        6016 min
Histogram: 1 0 0 0 0 0 0 0 0 0

Total # of neighbors = 6016
Ave neighs/atom = 94.000000
Neighbor list builds = 16
Dangerous builds = 0
Setting up Verlet run ...
  Unit style    : metal
  Current step  : 1000
  Time step     : 0.001
Per MPI rank memory allocation (min/avg/max) = 3.089 | 3.089 | 3.089 Mbytes
Step Time Temp Volume Press 
    1000            1    750.63694    975.39347    38739.064 
    1100          1.1    713.01956    975.39347    35493.406 
    1200          1.2    695.20772    975.39347    34767.384 
    1300          1.3    705.05327    975.39347    34201.183 
    1400          1.4    643.87469    975.39347    33575.987 
    1500          1.5    597.38326    975.39347    35733.655 
    1600          1.6    808.87805    975.39347    35784.899 
    1700          1.7    771.67783    975.39347    37609.409 
    1800          1.8    627.28729    975.39347     36799.45 
    1900          1.9    711.67033    975.39347    33245.085 
    2000            2    748.91565    975.39347    31452.427 
    2100          2.1    607.81115    975.39347     31510.34 
    2200          2.2    565.52801    975.39347    27933.689 
    2300          2.3    628.37429    975.39347    30730.959 
    2400          2.4    655.00775    975.39347    34168.175 
    2500          2.5    684.47705    975.39347    36896.285 
    2600          2.6    729.08615    975.39347    36913.452 
    2700          2.7     737.1699    975.39347    36080.756 
    2800          2.8    649.63322    975.39347    32954.623 
    2900          2.9    614.89455    975.39347     28939.49 
    3000            3    613.51884    975.39347    30271.536 
    3100          3.1    705.21794    975.39347    32138.973 
    3200          3.2      624.837    975.39347    39313.281 
    3300          3.3    723.88625    975.39347     36287.13 
    3400          3.4    724.08656    975.39347    35004.825 
    3500          3.5    594.95148    975.39347    35900.676 
    3600          3.6    669.37091    975.39347    28680.488 
    3700          3.7    660.53327    975.39347    29269.351 
    3800          3.8    729.88899    975.39347    32168.991 
    3900          3.9    759.36674    975.39347    36584.055 
    4000            4    676.28182    975.39347    38453.539 
    4100          4.1    665.82268    975.39347    34226.174 
    4200          4.2    752.97192    975.39347    28209.537 
    4300          4.3    601.14475    975.39347    35172.327 
    4400          4.4    684.01699    975.39347    38296.804 
    4500          4.5    901.76364    975.39347     31922.64 
    4600          4.6    623.95684    975.39347    38253.253 
    4700          4.7    694.08824    975.39347    33777.755 
    4800          4.8     729.0859    975.39347    32451.133 
    4900          4.9    720.70997    975.39347    29842.488 
    5000            5    677.92282    975.39347    29223.749 
    5100          5.1    661.40601    975.39347    33011.792 
    5200          5.2    728.69663    975.39347    37223.241 
    5300          5.3    767.45508    975.39347    36494.972 
    5400          5.4    676.22705    975.39347    36062.786 
    5500          5.5    691.50371    975.39347    29944.903 
    5600          5.6    652.62395    975.39347    32247.362 
    5700          5.7    723.87075    975.39347    30477.003 
    5800          5.8    602.54226    975.39347    38217.633 
    5900          5.9    725.41735    975.39347    36879.037 
    6000            6    710.19415    975.39347    36860.689 
    6100          6.1    678.86708    975.39347     35581.83 
    6200          6.2     626.1679    975.39347    32089.121 
    6300          6.3    570.19273    975.39347    31139.806 
    6400          6.4    685.61438    975.39347    30250.291 
    6500          6.5    689.95119    975.39347    36296.263 
    6600          6.6    817.94499    975.39347    34392.964 
    6700          6.7    758.81646    975.39347    33981.368 
    6800          6.8    496.25673    975.39347    35876.051 
    6900          6.9    710.57807    975.39347    27590.743 
    7000            7    659.00948    975.39347    33235.799 
    7100          7.1    769.38264    975.39347    36500.503 
    7200          7.2    801.71487    975.39347    36405.509 
    7300          7.3    736.02053    975.39347    37618.224 
    7400          7.4    669.71948    975.39347    37544.275 
    7500          7.5    710.98911    975.39347    35788.033 
    7600          7.6    657.15709    975.39347    32257.369 
    7700          7.7     547.0514    975.39347    29873.708 
    7800          7.8    575.69691    975.39347    32162.694 
    7900          7.9    630.13191    975.39347    34100.985 
    8000            8    609.58441    975.39347     38309.76 
    8100          8.1    837.19493    975.39347    33236.539 
    8200          8.2    695.90718    975.39347    34978.846 
    8300          8.3    566.22224    975.39347    31556.141 
    8400          8.4    622.98128    975.39347    29534.098 
    8500          8.5    608.18768    975.39347    33694.067 
    8600          8.6    815.49348    975.39347    35066.885 
    8700          8.7    751.32114    975.39347    37904.978 
    8800          8.8    732.71114    975.39347    40351.471 
    8900          8.9    887.68386    975.39347    31655.058 
    9000            9    801.60247    975.39347    28188.999 
    9100          9.1    541.59181    975.39347    34594.113 
    9200          9.2    675.34062    975.39347    32194.117 
    9300          9.3    762.27671    975.39347     33868.53 
    9400          9.4    734.62597    975.39347    34338.511 
    9500          9.5    656.28873    975.39347    38062.708 
    9600          9.6    729.75637    975.39347    34370.532 
    9700          9.7    579.87326    975.39347     33806.22 
    9800          9.8    567.22491    975.39347    30875.809 
    9900          9.9    649.46867    975.39347    30770.776 
   10000           10    660.08414    975.39347    34791.946 
Loop time of 197.643 on 1 procs for 9000 steps with 64 atoms

Performance: 3.934 ns/day, 6.100 hours/ns, 45.537 timesteps/s
100.0% CPU use with 1 MPI tasks x no OpenMP threads

MPI task timing breakdown:
Section |  min time  |  avg time  |  max time  |%varavg| %total
---------------------------------------------------------------
Pair    | 197.55     | 197.55     | 197.55     |   0.0 | 99.95
Neigh   | 0.034482   | 0.034482   | 0.034482   |   0.0 |  0.02
Comm    | 0.031855   | 0.031855   | 0.031855   |   0.0 |  0.02
Output  | 0.00055769 | 0.00055769 | 0.00055769 |   0.0 |  0.00
Modify  | 0.015606   | 0.015606   | 0.015606   |   0.0 |  0.01
Other   |            | 0.006864   |            |       |  0.00

Nlocal:        64.0000 ave          64 max          64 min
Histogram: 1 0 0 0 0 0 0 0 0 0
Nghost:        886.000 ave         886 max         886 min
Histogram: 1 0 0 0 0 0 0 0 0 0
Neighs:         0.00000 ave           0 max           0 min
Histogram: 1 0 0 0 0 0 0 0 0 0
FullNghs:      6014.00 ave        6014 max        6014 min
Histogram: 1 0 0 0 0 0 0 0 0 0

Total # of neighbors = 6014
Ave neighs/atom = 93.968750
Neighbor list builds = 162
Dangerous builds = 0
System init for write_data ...
Total wall time: 0:03:38
