ITEM: TIMESTEP
10000
ITEM: NUMBER OF ATOMS
64
ITEM: BOX BOUNDS xy xz yz pp pp pp
0.0000000000000000e+00 1.0560000000000285e+01 0.0000000000000000e+00
0.0000000000000000e+00 9.1452282639639186e+00 0.0000000000000000e+00
0.0000000000000000e+00 1.0100000000000000e+01 0.0000000000000000e+00
ITEM: ATOMS id type x y z
1 1 1.19401 5.20523 3.64843
2 1 1.36245 5.36427 8.76658
3 1 10.4665 7.60269 3.22737
4 1 10.396 7.70137 8.55705
5 1 6.72396 0.613879 3.80229
6 1 6.47108 0.904924 8.45121
7 1 5.20276 2.95581 3.49633
8 1 5.22322 3.12099 8.81853
9 1 1.29117 0.663931 3.91084
10 1 1.22615 0.80654 8.71304
11 1 10.4342 2.77072 3.75848
12 1 -0.0831767 3.13605 8.84496
13 1 3.7907 0.820263 3.69339
14 1 3.8178 0.758327 8.90726
15 1 2.68756 3.03416 3.26345
16 1 2.81906 3.21181 8.80816
17 1 6.70091 5.07297 3.79891
18 1 6.74253 5.45731 8.47745
19 1 4.92226 7.9751 4.29879
20 1 5.26038 7.42372 8.9525
21 1 9.21205 4.93337 4.08704
22 1 9.20566 5.15731 9.1164
23 1 7.71323 7.25233 3.95883
24 1 7.82061 7.71853 8.73403
25 1 4.14589 5.30767 3.90861
26 1 4.04473 5.3102 9.33057
27 1 2.61512 7.48969 3.54786
28 1 2.76422 7.58555 8.93092
29 1 9.25499 0.645761 4.0057
30 1 9.07713 0.846127 9.33564
31 1 7.64464 2.68283 3.99409
32 1 7.78133 3.0063 8.88011
33 1 5.17387 1.55661 0.929164
34 1 5.39917 1.54852 6.01408
35 1 3.96019 4.04029 1.34984
36 1 4.04217 3.92413 6.26682
37 1 2.82324 6.13627 1.51832
38 1 2.66962 6.07651 6.34312
39 1 1.29656 8.50861 0.798638
40 1 1.6196 8.3127 6.19296
41 1 10.5377 1.79364 0.983652
42 1 10.5247 1.50568 6.58685
43 1 2.46875 1.67745 1.34496
44 1 2.64722 1.66044 6.33311
45 1 1.32148 3.97204 0.924167
46 1 1.42353 3.86286 6.48318
47 1 10.4659 5.92188 1.28844
48 1 0.19321 6.10414 6.85101
49 1 9.11177 3.85964 1.62668
50 1 9.5282 3.70642 6.52491
51 1 7.81019 6.17776 1.23969
52 1 8.15432 6.06171 6.24924
53 1 6.55976 8.5465 0.873447
54 1 6.71864 8.32818 5.89825
55 1 9.32716 8.3577 1.04077
56 1 9.39214 8.29724 6.19341
57 1 7.83376 1.41275 1.55071
58 1 8.04359 1.49351 6.60664
59 1 6.46177 4.04609 0.898085
60 1 6.64076 3.88301 6.34234
61 1 5.27557 6.31681 1.57189
62 1 5.60666 6.14761 5.94811
63 1 4.05822 8.54968 1.56717
64 1 4.02133 8.32523 6.83557
