 # Something
 64 atoms
 1 atom types
 0   10.560000000000285      xlo xhi 
 0   9.1452282639639186      ylo yhi 
 0   10.179999999999998      zlo zhi 
   0.0000000000000000        0.0000000000000000        0.0000000000000000      xy xz yz
 Atoms
 
           1           1   1.3200000000000356        5.3347164873122859        3.8174999999999990     
           2           1   1.3200000000000356        5.3347164873122859        8.9074999999999989     
           3           1   0.0000000000000000        7.6210235533032655        3.8174999999999990     
           4           1   0.0000000000000000        7.6210235533032655        8.9074999999999989     
           5           1   6.6000000000001782       0.76210235533032655        3.8174999999999990     
           6           1   6.6000000000001782       0.76210235533032655        8.9074999999999989     
           7           1   5.2800000000001424        3.0484094213213062        3.8174999999999990     
           8           1   5.2800000000001424        3.0484094213213062        8.9074999999999989     
           9           1   1.3200000000000356       0.76210235533032655        3.8174999999999990     
          10           1   1.3200000000000356       0.76210235533032655        8.9074999999999989     
          11           1   0.0000000000000000        3.0484094213213062        3.8174999999999990     
          12           1   0.0000000000000000        3.0484094213213062        8.9074999999999989     
          13           1   3.9600000000001065       0.76210235533032655        3.8174999999999990     
          14           1   3.9600000000001065       0.76210235533032655        8.9074999999999989     
          15           1   2.6400000000000712        3.0484094213213062        3.8174999999999990     
          16           1   2.6400000000000712        3.0484094213213062        8.9074999999999989     
          17           1   6.6000000000001782        5.3347164873122859        3.8174999999999990     
          18           1   6.6000000000001782        5.3347164873122859        8.9074999999999989     
          19           1   5.2800000000001424        7.6210235533032655        3.8174999999999990     
          20           1   5.2800000000001424        7.6210235533032655        8.9074999999999989     
          21           1   9.2400000000002489        5.3347164873122859        3.8174999999999990     
          22           1   9.2400000000002489        5.3347164873122859        8.9074999999999989     
          23           1   7.9200000000002131        7.6210235533032655        3.8174999999999990     
          24           1   7.9200000000002131        7.6210235533032655        8.9074999999999989     
          25           1   3.9600000000001065        5.3347164873122859        3.8174999999999990     
          26           1   3.9600000000001065        5.3347164873122859        8.9074999999999989     
          27           1   2.6400000000000712        7.6210235533032655        3.8174999999999990     
          28           1   2.6400000000000712        7.6210235533032655        8.9074999999999989     
          29           1   9.2400000000002489       0.76210235533032655        3.8174999999999990     
          30           1   9.2400000000002489       0.76210235533032655        8.9074999999999989     
          31           1   7.9200000000002131        3.0484094213213062        3.8174999999999990     
          32           1   7.9200000000002131        3.0484094213213062        8.9074999999999989     
          33           1   5.2800000000001424        1.5242047106606536        1.2724999999999997     
          34           1   5.2800000000001424        1.5242047106606536        6.3624999999999989     
          35           1   3.9600000000001065        3.8105117766516328        1.2724999999999997     
          36           1   3.9600000000001065        3.8105117766516328        6.3624999999999989     
          37           1   2.6400000000000712        6.0968188426426133        1.2724999999999997     
          38           1   2.6400000000000712        6.0968188426426133        6.3624999999999989     
          39           1   1.3200000000000356        8.3831259086335930        1.2724999999999997     
          40           1   1.3200000000000356        8.3831259086335930        6.3624999999999989     
          41           1   0.0000000000000000        1.5242047106606536        1.2724999999999997     
          42           1   0.0000000000000000        1.5242047106606536        6.3624999999999989     
          43           1   2.6400000000000712        1.5242047106606536        1.2724999999999997     
          44           1   2.6400000000000712        1.5242047106606536        6.3624999999999989     
          45           1   1.3200000000000356        3.8105117766516328        1.2724999999999997     
          46           1   1.3200000000000356        3.8105117766516328        6.3624999999999989     
          47           1   0.0000000000000000        6.0968188426426133        1.2724999999999997     
          48           1   0.0000000000000000        6.0968188426426133        6.3624999999999989     
          49           1   9.2400000000002489        3.8105117766516328        1.2724999999999997     
          50           1   9.2400000000002489        3.8105117766516328        6.3624999999999989     
          51           1   7.9200000000002131        6.0968188426426133        1.2724999999999997     
          52           1   7.9200000000002131        6.0968188426426133        6.3624999999999989     
          53           1   6.6000000000001782        8.3831259086335930        1.2724999999999997     
          54           1   6.6000000000001782        8.3831259086335930        6.3624999999999989     
          55           1   9.2400000000002489        8.3831259086335930        1.2724999999999997     
          56           1   9.2400000000002489        8.3831259086335930        6.3624999999999989     
          57           1   7.9200000000002131        1.5242047106606536        1.2724999999999997     
          58           1   7.9200000000002131        1.5242047106606536        6.3624999999999989     
          59           1   6.6000000000001782        3.8105117766516328        1.2724999999999997     
          60           1   6.6000000000001782        3.8105117766516328        6.3624999999999989     
          61           1   5.2800000000001424        6.0968188426426133        1.2724999999999997     
          62           1   5.2800000000001424        6.0968188426426133        6.3624999999999989     
          63           1   3.9600000000001065        8.3831259086335930        1.2724999999999997     
          64           1   3.9600000000001065        8.3831259086335930        6.3624999999999989     
