 # Something
 2 atoms
 1 atom types
 0   2.4900000000000002      xlo xhi
 0   2.1564032554232528      ylo yhi
 0   5.1200000000000001      zlo zhi
  -1.2449999999999997        0.0000000000000000        0.0000000000000000      xy xz yz
 Atoms

           1           1   0.0000000000000000        1.4376021702821686        1.2800000000000000
           2           1   1.2450000000000006       0.71880108514108421        3.8399999999999999
