LAMMPS (29 Sep 2021 - Update 1)
Reading data file ...
  triclinic box = (0.0000000 0.0000000 0.0000000) to (10.640000 9.2145103 10.100000) with tilt (0.0000000 0.0000000 0.0000000)
  1 by 1 by 1 MPI processor grid
  reading atoms ...
  64 atoms
  read_data CPU = 0.001 seconds
Neighbor list info ...
  update every 1 steps, delay 0 steps, check yes
  max neighbors/atom: 2000, page size: 100000
  master list distance cutoff = 7
  ghost atom cutoff = 7
  binsize = 3.5, bins = 4 3 3
  1 neighbor lists, perpetual/occasional/extra = 1 0 0
  (1) pair mlip, perpetual
      attributes: full, newton on
      pair build: full/bin/atomonly
      stencil: full/bin/3d
      bin: standard
Setting up Verlet run ...
  Unit style    : metal
  Current step  : 0
  Time step     : 0.001
Per MPI rank memory allocation (min/avg/max) = 3.089 | 3.089 | 3.089 Mbytes
Step Time Temp Volume Press 
       0            0         1380    990.22813   -6027.0234 
       1        0.001    1379.0965    990.22813   -5996.2167 
       2        0.002    1376.3902    990.22813   -5903.9101 
       3        0.003    1371.8924    990.22813   -5750.4067 
       4        0.004    1365.6208    990.22813   -5536.1941 
       5        0.005    1357.5992    990.22813    -5261.945 
       6        0.006    1347.8577    990.22813   -4928.5188 
       7        0.007    1336.4329    990.22813   -4537.6438 
       8        0.008    1323.3689    990.22813   -4095.7519 
       9        0.009    1308.7175    990.22813   -3605.3342 
      10         0.01    1292.5364    990.22813   -3067.9532 
Loop time of 0.22338 on 1 procs for 10 steps with 64 atoms

Performance: 3.868 ns/day, 6.205 hours/ns, 44.767 timesteps/s
92.4% CPU use with 1 MPI tasks x no OpenMP threads

MPI task timing breakdown:
Section |  min time  |  avg time  |  max time  |%varavg| %total
---------------------------------------------------------------
Pair    | 0.22327    | 0.22327    | 0.22327    |   0.0 | 99.95
Neigh   | 0          | 0          | 0          |   0.0 |  0.00
Comm    | 3.5574e-05 | 3.5574e-05 | 3.5574e-05 |   0.0 |  0.02
Output  | 4.1239e-05 | 4.1239e-05 | 4.1239e-05 |   0.0 |  0.02
Modify  | 2.5601e-05 | 2.5601e-05 | 2.5601e-05 |   0.0 |  0.01
Other   |            | 1.273e-05  |            |       |  0.01

Nlocal:        64.0000 ave          64 max          64 min
Histogram: 1 0 0 0 0 0 0 0 0 0
Nghost:        886.000 ave         886 max         886 min
Histogram: 1 0 0 0 0 0 0 0 0 0
Neighs:         0.00000 ave           0 max           0 min
Histogram: 1 0 0 0 0 0 0 0 0 0
FullNghs:      5504.00 ave        5504 max        5504 min
Histogram: 1 0 0 0 0 0 0 0 0 0

Total # of neighbors = 5504
Ave neighs/atom = 86.000000
Neighbor list builds = 0
Dangerous builds = 0
Setting up Verlet run ...
  Unit style    : metal
  Current step  : 10
  Time step     : 0.001
Per MPI rank memory allocation (min/avg/max) = 3.089 | 3.089 | 3.089 Mbytes
Step Time Temp Volume Press 
      10         0.01    1292.5364    990.22813   -3067.9532 
      11        0.011     1274.889    990.22813   -2483.4636 
      12        0.012    1255.8439    990.22813   -1852.2069 
      13        0.013    1235.4748    990.22813   -1176.0647 
      14        0.014    1213.8614    990.22813   -457.77665 
      15        0.015    1191.0881    990.22813    301.06698 
      16        0.016    1167.2448    990.22813    1097.6074 
      17        0.017    1142.4258    990.22813    1930.3659 
      18        0.018    1116.7297    990.22813    2797.2731 
      19        0.019    1090.2593    990.22813    3695.8777 
      20         0.02    1063.1209    990.22813    4623.0536 
      21        0.021    1035.4242    990.22813    5574.4377 
      22        0.022    1007.2816    990.22813    6545.9924 
      23        0.023    978.80714    990.22813    7530.9398 
      24        0.024    950.11617    990.22813    8527.8307 
      25        0.025    921.32538    990.22813    9534.2683 
      26        0.026    892.55176    990.22813    10545.325 
      27        0.027    863.91135    990.22813    11556.711 
      28        0.028    835.51881    990.22813    12565.837 
      29        0.029    807.48673    990.22813     13567.48 
      30         0.03    779.92472    990.22813    14559.382 
      31        0.031    752.93861    990.22813    15536.786 
      32        0.032    726.62929    990.22813    16494.581 
      33        0.033    701.09234    990.22813     17429.73 
      34        0.034     676.4178    990.22813    18340.858 
      35        0.035     652.6893    990.22813     19223.68 
      36        0.036    629.98294    990.22813    20074.677 
      37        0.037    608.36691    990.22813    20891.734 
      38        0.038    587.90147    990.22813    21673.871 
      39        0.039    568.63846    990.22813    22418.543 
      40         0.04     550.6207    990.22813    23124.254 
      41        0.041    533.88197    990.22813    23789.616 
      42        0.042    518.44694    990.22813    24413.601 
      43        0.043    504.33096    990.22813    24994.213 
      44        0.044     491.5402    990.22813    25530.132 
      45        0.045    480.07214    990.22813    26022.021 
      46        0.046    469.91585    990.22813    26469.587 
      47        0.047    461.05211    990.22813    26872.152 
      48        0.048    453.45402    990.22813    27231.493 
      49        0.049    447.08762    990.22813    27548.797 
      50         0.05    441.91221    990.22813    27824.001 
      51        0.051    437.88103    990.22813    28058.693 
      52        0.052    434.94187    990.22813    28253.998 
      53        0.053    433.03778    990.22813    28411.433 
      54        0.054     432.1078    990.22813    28533.717 
      55        0.055    432.08726    990.22813    28624.597 
      56        0.056    432.90866    990.22813    28683.503 
      57        0.057    434.50277    990.22813    28713.858 
      58        0.058    436.79895    990.22813    28716.689 
      59        0.059    439.72581    990.22813     28693.73 
      60         0.06    443.21182    990.22813    28648.185 
      61        0.061    447.18581    990.22813    28582.486 
      62        0.062    451.57736    990.22813    28498.802 
      63        0.063    456.31732    990.22813    28398.945 
      64        0.064    461.33821    990.22813    28285.456 
      65        0.065    466.57454    990.22813     28159.36 
      66        0.066     471.9632    990.22813    28023.943 
      67        0.067    477.44337    990.22813     27877.31 
      68        0.068    482.95703    990.22813    27724.971 
      69        0.069     488.4497    990.22813    27569.254 
      70         0.07    493.87035    990.22813    27412.388 
      71        0.071    499.17136    990.22813    27256.316 
      72        0.072    504.30865    990.22813     27102.33 
      73        0.073     509.2417    990.22813    26951.885 
      74        0.074     513.9337    990.22813    26806.111 
      75        0.075    518.35152    990.22813    26666.271 
      76        0.076    522.46555    990.22813    26530.942 
      77        0.077    526.24999    990.22813     26404.06 
      78        0.078    529.68324    990.22813    26286.651 
      79        0.079    532.74771    990.22813    26179.901 
      80         0.08    535.42965    990.22813    26083.694 
      81        0.081    537.71898    990.22813    25999.376 
      82        0.082    539.60905    990.22813    25926.852 
      83        0.083    541.09663    990.22813    25866.354 
      84        0.084    542.18207    990.22813     25818.52 
      85        0.085    542.86922    990.22813    25783.276 
      86        0.086    543.16516    990.22813    25759.298 
      87        0.087    543.08007    990.22813    25747.605 
      88        0.088    542.62721    990.22813    25749.233 
      89        0.089    541.82274    990.22813    25760.494 
      90         0.09    540.68565    990.22813    25782.381 
      91        0.091    539.23756    990.22813    25815.103 
      92        0.092    537.50246    990.22813    25857.714 
      93        0.093    535.50666    990.22813    25909.944 
      94        0.094    533.27847    990.22813    25971.248 
      95        0.095    530.84784    990.22813    26041.235 
      96        0.096    528.24587    990.22813    26119.792 
      97        0.097    525.50506    990.22813    26204.267 
      98        0.098     522.6594    990.22813    26293.452 
      99        0.099    519.74362    990.22813    26383.804 
     100          0.1    516.79301    990.22813    26476.362 
Loop time of 1.85495 on 1 procs for 90 steps with 64 atoms

Performance: 4.192 ns/day, 5.725 hours/ns, 48.519 timesteps/s
99.7% CPU use with 1 MPI tasks x no OpenMP threads

MPI task timing breakdown:
Section |  min time  |  avg time  |  max time  |%varavg| %total
---------------------------------------------------------------
Pair    | 1.8539     | 1.8539     | 1.8539     |   0.0 | 99.94
Neigh   | 0.00020387 | 0.00020387 | 0.00020387 |   0.0 |  0.01
Comm    | 0.0003009  | 0.0003009  | 0.0003009  |   0.0 |  0.02
Output  | 0.00032307 | 0.00032307 | 0.00032307 |   0.0 |  0.02
Modify  | 0.00016954 | 0.00016954 | 0.00016954 |   0.0 |  0.01
Other   |            | 7.372e-05  |            |       |  0.00

Nlocal:        64.0000 ave          64 max          64 min
Histogram: 1 0 0 0 0 0 0 0 0 0
Nghost:        886.000 ave         886 max         886 min
Histogram: 1 0 0 0 0 0 0 0 0 0
Neighs:         0.00000 ave           0 max           0 min
Histogram: 1 0 0 0 0 0 0 0 0 0
FullNghs:      5836.00 ave        5836 max        5836 min
Histogram: 1 0 0 0 0 0 0 0 0 0

Total # of neighbors = 5836
Ave neighs/atom = 91.187500
Neighbor list builds = 1
Dangerous builds = 0
Setting up Verlet run ...
  Unit style    : metal
  Current step  : 100
  Time step     : 0.001
Per MPI rank memory allocation (min/avg/max) = 3.089 | 3.089 | 3.089 Mbytes
Step Time Temp Volume Press 
     100          0.1    516.79301    990.22813    26476.362 
     110         0.11    492.93148    990.22813    27278.741 
     120         0.12    497.73333    990.22813    27219.094 
     130         0.13    538.71952    990.22813    26025.121 
     140         0.14    600.71666    990.22813    24176.659 
     150         0.15    659.87028    990.22813    22458.233 
     160         0.16    698.51427    990.22813     21334.56 
     170         0.17    711.96517    990.22813     21058.76 
     180         0.18    704.66005    990.22813    21495.769 
     190         0.19    684.66841    990.22813    22470.615 
     200          0.2    662.66746    990.22813    23593.936 
     210         0.21    649.19686    990.22813     24468.19 
     220         0.22    645.64087    990.22813    25023.203 
     230         0.23    641.49154    990.22813    25609.453 
     240         0.24    628.07091    990.22813    26384.132 
     250         0.25    613.70848    990.22813     27106.43 
     260         0.26    619.57873    990.22813    27216.086 
     270         0.27    657.38842    990.22813    26418.157 
     280         0.28    714.52709    990.22813    25054.051 
     290         0.29    766.96782    990.22813    23844.182 
     300          0.3     798.5985    990.22813    23300.287 
     310         0.31    804.59199    990.22813    23656.103 
     320         0.32    791.89732    990.22813    24689.041 
     330         0.33    774.92176    990.22813    25850.855 
     340         0.34    761.24197    990.22813    26844.306 
     350         0.35    745.80071    990.22813    27763.199 
     360         0.36    721.79101    990.22813    28724.411 
     370         0.37    692.11766    990.22813    29660.305 
     380         0.38    669.17897    990.22813    30158.695 
     390         0.39    668.72098    990.22813    29642.483 
     400          0.4    699.07451    990.22813    27938.881 
     410         0.41    749.13928    990.22813    25492.179 
     420         0.42    791.72286    990.22813    23247.571 
     430         0.43    804.60352    990.22813    21904.665 
     440         0.44    785.24841    990.22813    21630.386 
     450         0.45    746.30672    990.22813    22083.855 
     460         0.46     706.1482    990.22813    22632.407 
     470         0.47    679.86757    990.22813    22834.301 
     480         0.48    671.15298    990.22813    22480.715 
     490         0.49      670.315    990.22813    21861.468 
     500          0.5    661.38148    990.22813     21470.51 
     510         0.51    634.68709    990.22813    21618.551 
     520         0.52    598.07576    990.22813    22090.077 
     530         0.53    572.06248    990.22813    22330.318 
     540         0.54    571.42547    990.22813    21917.984 
     550         0.55    593.82825    990.22813    20876.229 
     560         0.56     623.6148    990.22813    19635.907 
     570         0.57    643.16962    990.22813    18814.664 
     580         0.58    642.86651    990.22813    18762.072 
     590         0.59    622.83208    990.22813    19552.859 
     600          0.6    589.93371    990.22813    20924.459 
     610         0.61     554.4494    990.22813    22420.372 
     620         0.62    528.96875    990.22813     23542.35 
     630         0.63    528.33751    990.22813    23679.274 
     640         0.64    560.28759    990.22813    22666.132 
     650         0.65    614.11881    990.22813     20903.53 
     660         0.66    671.01586    990.22813    18979.848 
     670         0.67    719.35444    990.22813     17326.12 
     680         0.68    751.15755    990.22813    16239.762 
     690         0.69    759.44862    990.22813    15858.075 
     700          0.7    748.70313    990.22813    16066.327 
     710         0.71    735.63269    990.22813    16403.995 
     720         0.72    730.83516    990.22813    16632.397 
     730         0.73    725.88026    990.22813    17054.263 
     740         0.74    703.88342    990.22813    18185.535 
     750         0.75    659.18473    990.22813    20103.097 
     760         0.76    607.03573    990.22813    22265.931 
     770         0.77    574.17991    990.22813     23786.86 
     780         0.78    575.10131    990.22813    24215.404 
     790         0.79     600.3986    990.22813    23801.381 
     800          0.8    627.90217    990.22813    23190.443 
     810         0.81    640.21526    990.22813    22973.077 
     820         0.82    635.63454    990.22813    23256.935 
     830         0.83    624.74227    990.22813    23888.466 
     840         0.84    617.85926    990.22813    24588.301 
     850         0.85    619.30861    990.22813    25174.873 
     860         0.86    629.70028    990.22813    25497.092 
     870         0.87    646.03735    990.22813    25547.478 
     880         0.88    662.69627    990.22813    25493.738 
     890         0.89     678.7785    990.22813    25437.209 
     900          0.9    698.39216    990.22813    25222.464 
     910         0.91    720.90456    990.22813    24892.258 
     920         0.92    738.62984    990.22813    24616.588 
     930         0.93    745.09147    990.22813    24586.476 
     940         0.94    740.66995    990.22813    24798.764 
     950         0.95    736.65433    990.22813    24865.029 
     960         0.96    749.99355    990.22813    24307.529 
     970         0.97    778.62396    990.22813    23415.756 
     980         0.98    795.19476    990.22813    22929.892 
     990         0.99    775.96537    990.22813    23468.961 
    1000            1    727.01378    990.22813    24923.492 
Loop time of 18.7343 on 1 procs for 900 steps with 64 atoms

Performance: 4.151 ns/day, 5.782 hours/ns, 48.040 timesteps/s
100.0% CPU use with 1 MPI tasks x no OpenMP threads

MPI task timing breakdown:
Section |  min time  |  avg time  |  max time  |%varavg| %total
---------------------------------------------------------------
Pair    | 18.725     | 18.725     | 18.725     |   0.0 | 99.95
Neigh   | 0.0032633  | 0.0032633  | 0.0032633  |   0.0 |  0.02
Comm    | 0.0031597  | 0.0031597  | 0.0031597  |   0.0 |  0.02
Output  | 0.00047491 | 0.00047491 | 0.00047491 |   0.0 |  0.00
Modify  | 0.0017396  | 0.0017396  | 0.0017396  |   0.0 |  0.01
Other   |            | 0.0007083  |            |       |  0.00

Nlocal:        64.0000 ave          64 max          64 min
Histogram: 1 0 0 0 0 0 0 0 0 0
Nghost:        886.000 ave         886 max         886 min
Histogram: 1 0 0 0 0 0 0 0 0 0
Neighs:         0.00000 ave           0 max           0 min
Histogram: 1 0 0 0 0 0 0 0 0 0
FullNghs:      5810.00 ave        5810 max        5810 min
Histogram: 1 0 0 0 0 0 0 0 0 0

Total # of neighbors = 5810
Ave neighs/atom = 90.781250
Neighbor list builds = 16
Dangerous builds = 0
Setting up Verlet run ...
  Unit style    : metal
  Current step  : 1000
  Time step     : 0.001
Per MPI rank memory allocation (min/avg/max) = 3.089 | 3.089 | 3.089 Mbytes
Step Time Temp Volume Press 
    1000            1    727.01378    990.22813    24923.492 
    1100          1.1    682.73461    990.22813    25326.118 
    1200          1.2    665.92785    990.22813    20847.763 
    1300          1.3    614.08723    990.22813    22440.618 
    1400          1.4     695.3831    990.22813    20618.208 
    1500          1.5    718.82498    990.22813    25071.922 
    1600          1.6    831.96314    990.22813     21651.13 
    1700          1.7    630.17203    990.22813    23038.601 
    1800          1.8    681.47165    990.22813    16829.165 
    1900          1.9    649.12378    990.22813    20547.878 
    2000            2    761.31211    990.22813    17928.328 
    2100          2.1     676.4972    990.22813    21884.419 
    2200          2.2      682.694    990.22813     24501.44 
    2300          2.3    795.25976    990.22813    28981.068 
    2400          2.4     637.8294    990.22813    35190.695 
    2500          2.5    667.22084    990.22813    29849.969 
    2600          2.6    735.65403    990.22813    23817.468 
    2700          2.7     678.0844    990.22813    22458.944 
    2800          2.8    687.25891    990.22813    23773.316 
    2900          2.9     729.7624    990.22813    22507.574 
    3000            3    755.59278    990.22813    23097.709 
    3100          3.1    583.54749    990.22813    25118.986 
    3200          3.2    581.31016    990.22813    18798.956 
    3300          3.3    679.60309    990.22813    16233.354 
    3400          3.4    739.40576    990.22813    21923.992 
    3500          3.5     689.5458    990.22813    25427.278 
    3600          3.6    718.91709    990.22813    23984.781 
    3700          3.7    777.25557    990.22813     24380.87 
    3800          3.8    804.49055    990.22813    27980.407 
    3900          3.9    699.95444    990.22813    29051.878 
    4000            4    644.80273    990.22813    24353.422 
    4100          4.1    628.67885    990.22813    23531.373 
    4200          4.2    722.74795    990.22813    21218.677 
    4300          4.3    561.74389    990.22813    27287.917 
    4400          4.4    682.62907    990.22813    26337.394 
    4500          4.5    740.72971    990.22813    26157.694 
    4600          4.6    614.95386    990.22813    25809.717 
    4700          4.7    666.16398    990.22813    21620.445 
    4800          4.8    585.03996    990.22813    22616.571 
    4900          4.9    709.06777    990.22813    16920.272 
    5000            5     612.2918    990.22813    23373.988 
    5100          5.1    721.69667    990.22813    24757.839 
    5200          5.2    799.24324    990.22813    26795.662 
    5300          5.3    718.97847    990.22813    28653.584 
    5400          5.4    665.78697    990.22813    20221.289 
    5500          5.5    571.08063    990.22813    21213.688 
    5600          5.6    678.35587    990.22813    19893.198 
    5700          5.7    719.06122    990.22813    22421.648 
    5800          5.8    673.98514    990.22813    24991.814 
    5900          5.9    652.02563    990.22813    25443.359 
    6000            6    696.55702    990.22813    19685.514 
    6100          6.1    657.88304    990.22813    15293.031 
    6200          6.2    673.87349    990.22813    16500.211 
    6300          6.3    652.68813    990.22813    24670.985 
    6400          6.4    736.65229    990.22813    25922.141 
    6500          6.5     771.0717    990.22813    24375.018 
    6600          6.6    662.02802    990.22813     26153.26 
    6700          6.7    605.34753    990.22813    28641.447 
    6800          6.8    805.58647    990.22813    20087.721 
    6900          6.9     697.9198    990.22813     22013.85 
    7000            7    754.41471    990.22813    20941.563 
    7100          7.1    733.45146    990.22813    27202.719 
    7200          7.2     728.2963    990.22813    32578.934 
    7300          7.3    836.76128    990.22813    26295.619 
    7400          7.4     700.1859    990.22813    21036.393 
    7500          7.5    595.54707    990.22813    25351.258 
    7600          7.6    714.80303    990.22813    24422.925 
    7700          7.7    691.57764    990.22813    29194.412 
    7800          7.8    813.72766    990.22813    28041.854 
    7900          7.9     856.2176    990.22813    25473.127 
    8000            8    734.46184    990.22813    24061.663 
    8100          8.1     684.9492    990.22813    20652.465 
    8200          8.2    634.12113    990.22813    20725.848 
    8300          8.3    635.90054    990.22813    22363.314 
    8400          8.4    717.88368    990.22813    29022.532 
    8500          8.5    833.63991    990.22813    27990.613 
    8600          8.6    722.22708    990.22813    25785.988 
    8700          8.7    633.29294    990.22813     22375.51 
    8800          8.8    591.53654    990.22813    22864.314 
    8900          8.9    678.98083    990.22813    25470.451 
    9000            9    767.38942    990.22813    26974.563 
    9100          9.1    739.61688    990.22813    27750.058 
    9200          9.2    750.07273    990.22813    24970.658 
    9300          9.3    590.40285    990.22813    24785.573 
    9400          9.4    593.96699    990.22813     24159.62 
    9500          9.5     817.6064    990.22813    21447.638 
    9600          9.6    715.72409    990.22813    28227.612 
    9700          9.7    799.69177    990.22813    28006.253 
    9800          9.8    679.58831    990.22813    26381.133 
    9900          9.9    603.21666    990.22813    25454.035 
   10000           10    658.24939    990.22813     22440.68 
Loop time of 194.914 on 1 procs for 9000 steps with 64 atoms

Performance: 3.989 ns/day, 6.016 hours/ns, 46.174 timesteps/s
100.0% CPU use with 1 MPI tasks x no OpenMP threads

MPI task timing breakdown:
Section |  min time  |  avg time  |  max time  |%varavg| %total
---------------------------------------------------------------
Pair    | 194.82     | 194.82     | 194.82     |   0.0 | 99.95
Neigh   | 0.034064   | 0.034064   | 0.034064   |   0.0 |  0.02
Comm    | 0.032378   | 0.032378   | 0.032378   |   0.0 |  0.02
Output  | 0.00053728 | 0.00053728 | 0.00053728 |   0.0 |  0.00
Modify  | 0.016708   | 0.016708   | 0.016708   |   0.0 |  0.01
Other   |            | 0.006842   |            |       |  0.00

Nlocal:        64.0000 ave          64 max          64 min
Histogram: 1 0 0 0 0 0 0 0 0 0
Nghost:        880.000 ave         880 max         880 min
Histogram: 1 0 0 0 0 0 0 0 0 0
Neighs:         0.00000 ave           0 max           0 min
Histogram: 1 0 0 0 0 0 0 0 0 0
FullNghs:      5838.00 ave        5838 max        5838 min
Histogram: 1 0 0 0 0 0 0 0 0 0

Total # of neighbors = 5838
Ave neighs/atom = 91.218750
Neighbor list builds = 162
Dangerous builds = 0
System init for write_data ...
Total wall time: 0:03:35
