LAMMPS data file via write_data, version 29 Sep 2021, timestep = 10000

64 atoms
1 atom types

0 10.640000000001363 xlo xhi
0 9.214510296267605 ylo yhi
0 10.1 zlo zhi
0 0 0 xy xz yz

Masses

1 65.38

Atoms # atomic

1 1 1.068490483004382 4.9631773808140665 4.119608664659749 0 0 0
2 1 1.4032053055708027 6.75650028806761 9.061337998524412 0 0 0
3 1 10.49116042545094 7.199925818206062 3.362639760555638 -1 0 0
4 1 0.1221282538766785 8.908054976061338 8.686023000863191 0 0 0
5 1 6.507360605073673 0.18860414609403697 3.53309574138126 0 0 0
6 1 6.800316142808728 1.9211175256846238 8.87053339506937 0 0 0
7 1 5.176767617182945 2.28050723127715 3.726284533433951 0 0 0
8 1 5.58379348869399 4.294003095205677 9.272069841472318 0 0 0
9 1 1.3238613171476432 0.34074616709648614 3.7958042985992746 0 0 0
10 1 1.192276047123382 2.0221131837938713 9.034985480767581 0 0 0
11 1 0.03347538743476179 2.4794389826638024 3.898894084512858 0 0 0
12 1 0.18159947995583306 4.125444203800649 9.249412235170327 0 0 0
13 1 3.752497991156455 0.36856165177878003 4.239581533763544 0 0 0
14 1 4.040005927789753 2.018877253421903 8.70307863386637 0 0 0
15 1 2.4940963325750456 2.7367519726425122 3.8208902995140037 0 0 0
16 1 3.0784923518743166 4.468365968339648 8.979173137221201 0 0 0
17 1 6.907814586473734 4.871960799106787 3.6775801759440707 0 0 0
18 1 6.653717393300104 6.59439785159305 8.518155706203519 0 0 0
19 1 5.347387250046013 7.145809069529429 3.768825611965206 0 0 0
20 1 5.17744848195252 8.94351885468867 8.60254532550341 0 0 0
21 1 9.24565754368395 4.775537086034872 3.861692186147455 0 0 0
22 1 9.499840179669395 6.377042213292472 8.646394767044699 0 0 0
23 1 8.133742482544124 7.154813502835779 3.6128441815730783 0 0 0
24 1 7.940391986080422 8.839792682889598 8.316096324581554 0 0 0
25 1 4.0344962921734915 4.8289771165569455 4.06132258862543 0 0 0
26 1 4.047645324691796 6.9760028022749925 9.599726579115545 0 0 0
27 1 2.498339638802103 7.081057365257877 3.9517946645286703 0 0 0
28 1 2.6599553286276847 8.915058747878339 8.81153156554421 0 0 0
29 1 9.377415757479156 0.37958895573769835 3.603246514844301 0 0 0
30 1 9.199490871012877 1.9176127651524797 8.303504957666298 0 0 0
31 1 7.867100849756544 2.5157153967267614 3.877096933422131 0 0 0
32 1 8.213109876908675 4.287614333036484 8.631649254067332 0 0 0
33 1 5.490525523329766 1.1632530409291681 1.1464870916125935 0 0 0
34 1 5.371646594020033 0.9475124968174707 6.369785222766775 0 0 0
35 1 4.084006777056048 3.5216689360526137 1.4273365674714782 0 0 0
36 1 3.945382246692783 3.5201799170949495 6.321764386018655 0 0 0
37 1 2.4274677295948686 5.957130004884386 1.5666646317640776 0 0 0
38 1 2.6570838191817026 5.896075382628741 6.937943654182402 0 0 0
39 1 1.6497478996092017 8.461606362585083 1.26837177388564 0 0 0
40 1 1.3724123158150152 8.106661131064172 6.043951090374778 0 0 0
41 1 10.447505285451937 0.9589127410017415 1.1078524716276106 -1 0 0
42 1 0.13900638595308915 1.042810103277694 6.538675104632368 0 0 0
43 1 2.730505781486485 1.2596723952076943 1.0382473519706679 0 0 0
44 1 2.540975229301463 1.2778684113515506 6.491933606740678 0 0 0
45 1 1.2131743206648085 3.249224514701872 1.5733791955454142 0 0 0
46 1 1.380538256912894 3.7450316903348866 6.713065362970559 0 0 0
47 1 10.497038725955354 5.657290517238621 1.523810571945987 -1 0 0
48 1 0.0025639533727282154 6.07669049579854 6.2429675297699205 0 0 0
49 1 9.23811499974215 3.4908611757374244 0.9509672135556172 0 0 0
50 1 9.44248088914466 3.645890525692978 6.338354592667081 0 0 0
51 1 8.003172779957032 5.807693765829913 0.8706371965365328 0 0 0
52 1 8.014396917033878 5.722481552502246 6.121266475319747 0 0 0
53 1 6.663098885369061 8.05629596195855 0.690715650703193 0 0 0
54 1 6.522717052093934 7.933900761577778 6.092465132594703 0 0 0
55 1 9.015109786881077 8.009079008892009 1.359257617673911 0 0 0
56 1 9.307448849196062 8.056713024073005 6.1044375873442185 0 0 0
57 1 8.012281410127963 1.1722811342179746 0.7430612368085656 0 0 0
58 1 7.974944624664472 1.1514936337568094 5.7618412553080995 0 0 0
59 1 6.8340241997725775 3.4693501196638175 1.3295036878445725 0 0 0
60 1 6.412765352106195 3.070348822291871 6.037487621597783 0 0 0
61 1 5.235173669063422 5.877225376818094 1.3452709440632402 0 0 0
62 1 5.181160955838155 5.585191616676771 6.69053135097728 0 0 0
63 1 4.162161117155974 8.33763334669397 1.9358256572882209 0 0 0
64 1 3.8182866675753018 7.959612125674842 6.318721190286742 0 0 0

Velocities

1 -1.8040840987459614 -3.586345542561079 1.579751931819193
2 -5.323186417935556 1.201476851086227 -0.2760318710564774
3 -0.06741250826927446 0.8197108802963716 0.15328319989836905
4 -1.22359931060211 -4.460625282256606 -0.6525216616897829
5 2.3378716900891368 -3.825175293749335 -1.0035074015915895
6 -0.8563078401509335 4.502305087485603 -2.050876139340272
7 1.575502518713517 -3.083843315818684 2.7562974911925906
8 0.8739276287515498 2.5716809470464876 0.3157301999385432
9 0.1776482537049163 2.111899194026627 -0.7402808849112332
10 -0.4671214825136435 -1.0660383949752492 -1.3043956079311745
11 2.4609285111304895 1.518440015759386 -3.821913536920811
12 -1.6012683083781485 0.6984174410936622 6.150578167812762
13 7.463919376911006 1.412434788242377 0.8659381090945791
14 -1.667145228797199 2.5731235138133273 -0.18327400280099368
15 1.4404902395227943 5.6281095108174375 0.08717518097374029
16 0.169713814910339 0.22159350091615412 -0.30646902595427544
17 2.3786638913432894 0.12698062091877754 -1.9657500758745554
18 -1.8435148292415557 -2.3481053771441305 -0.028633004107170495
19 0.9293569216460534 1.9685649006733288 -0.4512849403619688
20 -0.8009704271321008 -0.47064961706613295 -1.8224863526866397
21 -2.799503267627492 -1.9293261267387203 -7.159983983959185
22 -1.6287947734068648 -2.168556069042278 4.785454079336976
23 -2.7652328729643836 3.1773123064313373 1.1470021199702962
24 0.07171056313774271 2.4712716597774946 0.2375404531575199
25 3.0319763825672084 0.37862765888688915 -1.8844333603607204
26 3.5566161003459746 6.518193550086312 1.3935555013520986
27 4.137154397574082 3.2467863536454464 -0.8759427880955691
28 -1.8184468222448342 3.5174800559452213 0.7282590252646012
29 5.877122388181885 -1.543820083397174 4.316166018085124
30 2.068982492022651 -2.880873631758724 -6.242101252253671
31 2.619739806541866 -2.5396005054281274 -0.4272634579327765
32 -1.1278766840062233 0.5572386241229295 3.6920724938409624
33 -6.972706866522165 -2.241900326890744 -1.8253936881206638
34 -3.7274930108629927 -0.5145640737894928 -0.19889045826916588
35 -2.697537434000031 0.7068362161588371 -3.8490085703254278
36 0.2172030247705285 2.3156541408391287 -3.935112679592121
37 4.896466036614387 -2.5700934591095197 3.3021437359142327
38 0.4085162312404582 -5.239538014349676 -2.8590998066052586
39 2.2843265671546034 0.7412065481732978 -1.3613003052168162
40 -0.6578832955342266 -3.8394213865940987 5.308579435996745
41 -1.173550789616361 -1.7909631353945583 3.0848108523601656
42 -2.6751720071299543 -3.338721070066554 0.2485450498495379
43 -4.0944403561485805 2.2500702550627625 -0.2808619492434391
44 -2.559678743582117 1.1353211816554076 1.2211165261502677
45 5.893430326376091 3.6989634762789865 -2.925257185098729
46 3.397780390946528 -0.6823528795932631 0.3042092290480962
47 -1.5842766680891087 -0.9902579023677534 1.046368665691204
48 -6.917043768006964 -2.387450939434646 6.42292254809552
49 -1.1542115481920137 0.19185598890144517 3.8922812114162073
50 -2.795456885876378 4.246034681412503 -5.908617530617033
51 -3.4526875205964953 1.6904204092867998 3.85384175845976
52 -0.5352858416358097 -1.749139024354359 -1.3549525215179778
53 -4.210072610576311 1.1440538742213617 -4.0262809520224705
54 2.882649942196117 -3.901955754497261 -2.571559601776573
55 -0.7579325577473562 5.2819117919909555 1.6564106371869742
56 0.9537291942273444 -1.2220813409321094 4.9272457705873505
57 2.163678862090502 0.14097598866305336 -1.2876292650609493
58 -4.0731331932694665 -5.102542513538754 1.913731920186858
59 2.593945561104988 -1.585143793727415 1.6875899938097583
60 7.0429238038996544 0.23934589962388694 -4.295073748069843
61 0.21305634981501925 -0.8392386957400163 -1.8527918971364161
62 -0.7470288388832622 1.852987756247686 -1.169907456977549
63 1.4955233779767025 -1.4454869186219237 1.987832555059851
64 0.9655021627783748 -1.5134752006488061 1.8324531019296324
