ITEM: TIMESTEP
10000
ITEM: NUMBER OF ATOMS
64
ITEM: BOX BOUNDS xy xz yz pp pp pp
0.0000000000000000e+00 1.0640000000001363e+01 0.0000000000000000e+00
0.0000000000000000e+00 9.2145102962676049e+00 0.0000000000000000e+00
0.0000000000000000e+00 1.0100000000000000e+01 0.0000000000000000e+00
ITEM: ATOMS id type x y z
1 1 1.06849 4.96318 4.11961
2 1 1.40321 6.7565 9.06134
3 1 10.4912 7.19993 3.36264
4 1 0.122128 8.90805 8.68602
5 1 6.50736 0.188604 3.5331
6 1 6.80032 1.92112 8.87053
7 1 5.17677 2.28051 3.72628
8 1 5.58379 4.294 9.27207
9 1 1.32386 0.340746 3.7958
10 1 1.19228 2.02211 9.03499
11 1 10.6735 2.47944 3.89889
12 1 0.181599 4.12544 9.24941
13 1 3.7525 0.368562 4.23958
14 1 4.04001 2.01888 8.70308
15 1 2.4941 2.73675 3.82089
16 1 3.07849 4.46837 8.97917
17 1 6.90781 4.87196 3.67758
18 1 6.65372 6.5944 8.51816
19 1 5.34739 7.14581 3.76883
20 1 5.17745 8.94352 8.60255
21 1 9.24566 4.77554 3.86169
22 1 9.49984 6.37704 8.64639
23 1 8.13374 7.15481 3.61284
24 1 7.94039 8.83979 8.3161
25 1 4.0345 4.82898 4.06132
26 1 4.04765 6.976 9.59973
27 1 2.49834 7.08106 3.95179
28 1 2.65996 8.91506 8.81153
29 1 9.37742 0.379589 3.60325
30 1 9.19949 1.91761 8.3035
31 1 7.8671 2.51572 3.8771
32 1 8.21311 4.28761 8.63165
33 1 5.49053 1.16325 1.14649
34 1 5.37165 0.947512 6.36979
35 1 4.08401 3.52167 1.42734
36 1 3.94538 3.52018 6.32176
37 1 2.42747 5.95713 1.56666
38 1 2.65708 5.89608 6.93794
39 1 1.64975 8.46161 1.26837
40 1 1.37241 8.10666 6.04395
41 1 10.4475 0.958913 1.10785
42 1 0.139006 1.04281 6.53868
43 1 2.73051 1.25967 1.03825
44 1 2.54098 1.27787 6.49193
45 1 1.21317 3.24922 1.57338
46 1 1.38054 3.74503 6.71307
47 1 10.497 5.65729 1.52381
48 1 0.00256395 6.07669 6.24297
49 1 9.23811 3.49086 0.950967
50 1 9.44248 3.64589 6.33835
51 1 8.00317 5.80769 0.870637
52 1 8.0144 5.72248 6.12127
53 1 6.6631 8.0563 0.690716
54 1 6.52272 7.9339 6.09247
55 1 9.01511 8.00908 1.35926
56 1 9.30745 8.05671 6.10444
57 1 8.01228 1.17228 0.743061
58 1 7.97494 1.15149 5.76184
59 1 6.83402 3.46935 1.3295
60 1 6.41277 3.07035 6.03749
61 1 5.23517 5.87723 1.34527
62 1 5.18116 5.58519 6.69053
63 1 4.16216 8.33763 1.93583
64 1 3.81829 7.95961 6.31872
