LAMMPS data file via write_data, version 29 Sep 2021, timestep = 10000

64 atoms
1 atom types

0 10.600000000000822 xlo xhi
0 9.179869280115762 ylo yhi
0 10.34 zlo zhi
0 0 0 xy xz yz

Masses

1 65.38

Atoms # atomic

1 1 1.0618226707751444 5.398046312044999 3.976123886768001 0 0 0
2 1 1.3500022279804562 5.4510509493795825 8.630916699578757 0 0 0
3 1 10.436286761004904 7.453482600003688 3.8758212343896057 -1 0 0
4 1 10.553230398254772 7.443478821711398 9.427805043394018 -1 0 0
5 1 6.794005269648363 0.757512151849193 3.8313332483301004 0 0 0
6 1 6.672180983014196 0.6998836446200565 9.165382051149695 0 0 0
7 1 5.217306019095912 3.1498983250707004 4.314324765819656 0 0 0
8 1 5.712663510626775 3.0846350151910142 9.841400645518984 0 0 0
9 1 1.5628435908013218 0.6914190577526418 3.841863637392195 0 0 0
10 1 1.260491300751371 0.7798974345465505 8.848224957357834 0 0 0
11 1 10.440147355912513 2.881878125102623 3.938066243971842 -1 0 0
12 1 10.504345474223587 3.0823823074509953 8.802941638158154 -1 0 0
13 1 4.17551721935655 0.8134727154500957 3.855694929680674 0 0 0
14 1 4.064974063254154 1.0338685598496875 9.040539740315637 0 0 0
15 1 2.66587252033632 2.78733889999306 3.688764427228675 0 0 0
16 1 2.4508095553260674 3.4018329297351797 8.671163395405335 0 0 0
17 1 6.4974374616419786 5.337293728126678 4.079217839369788 0 0 0
18 1 6.734777177436706 5.349339155644384 8.841828840253234 0 0 0
19 1 5.330836829214661 7.679424538815587 4.287359385369562 0 0 0
20 1 5.093626810931099 7.764130379784125 9.194156308746216 0 0 0
21 1 8.92289551251344 5.338798311173566 3.5207725702629875 0 0 0
22 1 9.347818119757239 5.382164927416329 8.78914681015961 0 0 0
23 1 7.661700292603584 7.520475074316984 3.492003607878006 0 0 0
24 1 8.20524293042871 7.650970058250797 8.898147356449625 0 0 0
25 1 3.713468073120785 5.163277783400553 4.129342585069223 0 0 0
26 1 3.9223936437472604 5.536974681883036 9.327506576796651 0 0 0
27 1 2.6091346120465015 7.582128650878859 3.768552260955481 0 0 0
28 1 2.430048306969014 7.6720320640868005 8.896775746843437 0 0 0
29 1 9.392037307442664 0.7133473237790177 3.7755467816887998 0 0 0
30 1 9.210161745406335 0.8453204998651597 8.805759869704039 0 0 0
31 1 8.025372210644283 3.1112424989021887 3.9461280555197624 0 0 0
32 1 7.75760421433328 3.1791812375522186 8.774793506800378 0 0 0
33 1 5.080542505147084 1.5428151241715895 1.4508627527139397 0 0 0
34 1 5.164118910015377 1.7198847328241915 6.872689273764474 0 0 0
35 1 4.1402358997550595 4.004666326453594 1.6825682103943813 0 0 0
36 1 3.8425970921238406 3.769951286081613 6.8939192238405935 0 0 0
37 1 2.552454503341919 6.087404541242913 1.2225871938940112 0 0 0
38 1 2.7007546598572563 6.018118519719496 6.55396462595705 0 0 0
39 1 1.4877706298498383 8.362470080303844 1.0169747529061572 0 0 0
40 1 1.227976418352488 8.270887922467683 6.70791869188086 0 0 0
41 1 0.19583858575419055 1.5582118195461094 1.39083833905696 0 0 0
42 1 0.16165013689972194 1.3034086308698447 6.425281360392917 0 0 0
43 1 2.7060354707331076 1.8832621436052808 0.702278205240583 0 0 0
44 1 2.630309670931726 1.2401134175901953 6.435410971507595 0 0 0
45 1 1.374713550469191 3.8398486104602343 1.1889799403641452 0 0 0
46 1 1.3837301120790086 3.6888725620053537 5.706566311203817 0 0 0
47 1 0.028724327799739074 6.29744529326278 1.4288908927418493 0 0 0
48 1 0.05813037759398932 5.722375398202765 6.277321853893011 0 0 0
49 1 9.221001079700299 4.049131818597667 0.7786608782862157 0 0 0
50 1 9.165666197011832 3.728164588950548 6.820009097420979 0 0 0
51 1 8.100126824509678 6.2877671557468355 0.8040651161714498 0 0 0
52 1 8.318863207673505 6.15705088607653 6.210031732807269 0 0 0
53 1 6.754065071445651 8.430988399702592 1.2520994114492552 0 0 0
54 1 6.604862499975335 8.356196279601043 6.738019716951836 0 0 0
55 1 9.536077487180462 8.45287445808214 1.2425648465352384 0 0 0
56 1 9.336278887832886 8.440503035768485 6.0639648350709505 0 0 0
57 1 7.914074882933744 1.6398776309766816 1.1867645282023491 0 0 0
58 1 7.929813130217595 1.4002027814920206 6.625745262856466 0 0 0
59 1 6.948025976824638 3.6660500507027605 1.6806703388802493 0 0 0
60 1 6.641170651516199 3.897877573325717 6.4665134725603 0 0 0
61 1 5.216150650363821 6.29608083829401 1.8366302898220779 0 0 0
62 1 5.111240500431366 5.930186328064206 6.604404061496073 0 0 0
63 1 4.005825590806344 8.479114900987753 1.7244069125694095 0 0 0
64 1 3.88412034229937 8.497835064900428 6.610992252844112 0 0 0

Velocities

1 2.857263070049399 -5.010751808589729 -2.42824284109462
2 -0.6243055191913772 1.7798247696997078 -0.26923185210686723
3 -0.48199632585992047 2.3952460353798597 0.5835340935673667
4 -3.138219942956377 2.842996895967397 -2.050206486724065
5 3.2017187685418595 1.2490191345454529 -2.410026247705033
6 2.9822341842630817 -1.4320021241736252 -0.39841773795956986
7 -2.0192826416917393 -0.5584627425320567 -1.8492033740993439
8 -2.04237588464941 -0.05280697918914797 1.1034410995223665
9 -1.0427604942149538 4.862955682787213 -0.7538378865309593
10 2.037378632951679 5.277513465572209 -0.7305607130544663
11 1.9451249168796736 2.624606649015348 -1.0849378800120415
12 0.9575565816249498 4.322182707280311 -2.4339211801845
13 1.0737043718895363 0.44998274035966457 1.1183676174883526
14 -6.341971943214177 2.896110375033167 1.0640412882736763
15 4.630641950959305 -3.3450074357007265 0.2949590956138903
16 -4.102607299990316 -2.7054308008165524 1.053610000624175
17 4.074948742470216 -3.718016058557562 0.18339523145273284
18 0.3425888025690926 2.4562584885748 2.8492700035808105
19 -3.4294943138090153 -4.191593303230459 -1.3201677288445566
20 -1.4171262636911088 0.4061585243378132 -2.7527874350787607
21 -1.2710717495217656 6.998086429873628 0.3986858417771566
22 0.20692454578112882 1.8229742433032994 4.3008481637841545
23 -1.606913026084048 -4.628409630379332 -1.774966934540917
24 -1.875072918023756 -0.326209739545786 -5.826128718056135
25 -3.340455792822614 5.158250156851087 -3.0657653113734433
26 2.275219184532648 4.204819307511393 -0.5051158056410788
27 5.991189052172506 -5.274980165782231 -0.7253454690173505
28 -0.5615707554549575 1.614261753733794 -4.170484963009077
29 1.3233867239550339 -1.9313159043373633 5.1157975879386175
30 5.168928092009301 2.780317683922521 1.7602400357625516
31 2.697848694882967 -1.0185825041790055 -0.5995136402567043
32 5.074883352493101 -0.5167428786053342 2.6617124654019797
33 0.3001050100850659 -2.02248419633897 6.504154762673017
34 -8.66786597433333 -4.828812291008157 1.6606223330406935
35 1.6121413359926682 0.5556705197061541 4.180339744673015
36 -4.089376748496229 0.7183318587245806 5.397469649393179
37 2.483181065661932 -3.6772003702920455 -0.9189982414961959
38 -2.632704711032104 0.37093791361721007 5.849246523025188
39 -0.06915628890747262 4.493628493359146 2.173984058693777
40 0.07713733451552406 2.4302457377333977 -3.5809392814266383
41 0.29156009682624345 0.012026717966170105 1.3246044842971811
42 1.1962101979593558 1.7527745299226323 0.10378004496478252
43 -1.385622054720163 -3.1504235171330555 -2.4793890122950932
44 0.19483361455264428 -1.8352507694597198 0.06237061359573749
45 0.5562090195530608 4.305150644499916 -2.270271561996939
46 -6.305449692257551 1.8204209639986475 0.270061900797232
47 -1.1204101891225031 2.0067064875899825 -0.8727339615384712
48 0.1016502946339677 1.0165271458989429 -2.142292744378181
49 0.11772736896819788 2.2108611359704 2.6522775194572827
50 4.3846909627537105 -1.771613300054795 -0.15012329273042502
51 2.738298099658829 -1.4505978876721655 0.07867078137852704
52 -0.4200623726994744 -7.032871070574757 -3.7113500499914216
53 -4.335970412672841 1.3444538565802604 -0.2737968407601979
54 -0.17189836468719874 -6.4177791397554005 -0.6814043765369987
55 4.615349459345583 2.9462699889912547 -3.2456621619851367
56 0.8163671786164728 -5.877367127163723 0.7610739561689326
57 -1.5679650431682717 -0.019559569823360632 -4.495007179967608
58 -1.3278635663302798 -0.23523472353309033 -0.3132073962518541
59 0.04569787881074859 -6.757260998073321 0.1326336969947341
60 -0.49287414013455616 -1.2204479419421623 0.950866603125456
61 2.3765495103937018 0.06221863476796723 0.805811066942952
62 0.49447972262291906 2.6718429525997425 5.126933230304571
63 -2.671330383319592 -3.841616454729608 0.7320550495388293
64 -0.6899530059185986 1.989198807498667 -0.9708202372085052
