LAMMPS data file via write_data, version 29 Sep 2021, timestep = 10000

64 atoms
1 atom types

0 10.600000000000822 xlo xhi
0 9.179869280115762 ylo yhi
0 10.3 zlo zhi
0 0 0 xy xz yz

Masses

1 65.38

Atoms # atomic

1 1 1.1808740867193388 5.208823572253672 3.637687980093849 0 0 0
2 1 1.2581395788379006 5.347238698597003 8.90266702226683 0 0 0
3 1 10.579493300810002 7.404802529840216 3.780835548494907 -1 0 0
4 1 10.58650175396662 7.7403905421707435 9.243123727041622 -1 0 0
5 1 6.667281711724385 0.9207805601091562 3.512507095478845 0 0 0
6 1 6.419161711815861 0.7399732707853985 8.717927534110792 0 0 0
7 1 5.441865863097763 3.0734865951099266 4.153918928506582 0 0 0
8 1 5.342302406759968 3.0777881406459096 9.351839734405537 0 0 0
9 1 1.1955288733444582 0.7990556911370927 3.8434862670471803 0 0 0
10 1 1.4812209748635374 0.3503641303434024 9.045674283234304 0 0 0
11 1 10.544545769216452 3.0189065953800753 4.263239432683108 -1 0 0
12 1 10.318509564052276 2.898542246305804 9.080108216824646 -1 0 0
13 1 3.9215579387089066 0.7984733939913856 3.971516163849941 0 0 0
14 1 3.9738200104207775 0.5959652989923574 9.129917998532562 0 0 0
15 1 2.752117962426503 3.1668518156061385 3.504946013636883 0 0 0
16 1 2.616904561285864 3.0540643002810937 8.794964522470714 0 0 0
17 1 6.610564861819036 5.486426451544088 3.9476953711148304 0 0 0
18 1 6.439944710582723 5.459483794908811 9.28858102556948 0 0 0
19 1 5.39245405638748 7.619491879034447 3.7376438942473724 0 0 0
20 1 5.418836824434692 7.707762847026099 9.056937719051602 0 0 0
21 1 8.932640895771828 5.297400800345411 3.657268121462222 0 0 0
22 1 9.22073111390153 5.374565004910529 8.704811322500056 0 0 0
23 1 8.069335602997231 7.7839841388548905 4.123525546737382 0 0 0
24 1 8.023964549144829 7.7001832983493035 9.239653777329218 0 0 0
25 1 4.0165924101619295 5.372543787023561 4.213340864959183 0 0 0
26 1 3.980975099081486 5.335412322276613 9.11401681042166 0 0 0
27 1 2.5591932570020544 7.4634002962875154 4.081407292960261 0 0 0
28 1 2.900477908061338 7.475974871130856 9.02403544800154 0 0 0
29 1 9.415615067515226 0.7492253105255827 3.955166937093053 0 0 0
30 1 9.25262741620934 0.6705452182342815 8.77993690746861 0 0 0
31 1 7.92127391268389 3.138959546847028 3.549190461261503 0 0 0
32 1 7.801779715502079 2.9464239383867517 8.491849196969655 0 0 0
33 1 5.555543258755123 1.7041482986189365 1.5392818881077213 0 0 0
34 1 5.112504923403374 1.643801811566231 6.653688937992098 0 0 0
35 1 3.8104913592086254 3.8677289832337713 1.4566802780401178 0 0 0
36 1 3.956503718891315 3.96770369711615 6.787247986395306 0 0 0
37 1 2.7148043324772035 6.204036078779946 1.4491460889225325 0 0 0
38 1 2.619155771936512 6.153831228872559 6.329216859838443 0 0 0
39 1 1.2145941535173004 8.399425089782222 1.2996891502442816 0 0 0
40 1 1.4946484841278644 8.543470624547837 6.233595426855563 0 0 0
41 1 0.23810022185528434 1.6004298194936375 1.6055608987235293 0 0 0
42 1 0.18822444268619057 1.4121197147273807 6.7973602389498495 0 0 0
43 1 2.7828718713330844 1.2693076966464922 0.783972247311614 0 0 0
44 1 2.7284132303223996 1.6570293102213776 6.55924143338183 0 0 0
45 1 1.2154090324619133 3.800967212975147 0.8007750347660728 0 0 0
46 1 1.411334319387311 3.892005295965763 6.257904625788639 0 0 0
47 1 0.2604333592264081 6.152300576484569 1.1145657310386505 0 0 0
48 1 0.27059126722096705 6.0744678240885355 6.824575724170735 0 0 0
49 1 8.962077483368436 3.7107098066484463 1.138326170270884 0 0 0
50 1 9.160443211753497 3.6707578505439877 6.373358460974895 0 0 0
51 1 7.836702012887436 6.10559811148665 1.3158365175286677 0 0 0
52 1 7.878355911759148 5.953531905848907 6.878449303038423 0 0 0
53 1 6.748604059971642 8.56503072234799 1.4147884355384437 0 0 0
54 1 6.566874930669524 8.529222168753305 6.4610132855492175 0 0 0
55 1 9.400157380365595 8.612718060715283 1.5305920287208474 0 0 0
56 1 9.368013305360394 8.41124917718166 6.499893577430974 0 0 0
57 1 8.142706254072461 1.5142114804543525 0.5498871518811683 0 0 0
58 1 7.677577798642079 1.5803519398757817 6.0155767097031285 0 0 0
59 1 6.518398769003283 3.870288777600515 1.0778447327219711 0 0 0
60 1 6.560291911749418 3.986696913014368 6.03136546349553 0 0 0
61 1 5.160297608251711 6.308760886163154 1.0611804697733311 0 0 0
62 1 5.319448745230573 6.023104646142071 6.899084589611076 0 0 0
63 1 4.089580891225661 8.515311910875786 1.753196037226405 0 0 0
64 1 4.00001250959514 8.278208455694521 6.207683350183306 0 0 0

Velocities

1 3.0692541424488247 -1.3808206944705173 1.1772680641004858
2 1.704556566335526 9.679032002511342 3.9660149008539483
3 0.7087916977262249 -3.430726018338218 1.84807135849746
4 1.4754984450410673 -2.461428718105243 -1.2187912616082963
5 -3.936679507745437 -0.3509304025132884 -2.73421683634755
6 -4.475553063696397 -2.545476671714405 4.872998837527583
7 1.8401561733351637 -0.33995252468239384 -1.7494542307343637
8 1.310088032440876 -0.06007397133032183 3.5477793163469094
9 -5.081357731581482 -0.9831440394228632 1.04246938291504
10 1.018922511154255 0.25440903397128944 -1.1040999014089639
11 -1.2253526157791306 -2.295219698205578 1.0555611429867404
12 -0.09646732989265791 0.05508599675177476 -3.0293930875184314
13 -0.5139000904798554 0.32647682623084023 -1.7085734320626293
14 0.26973740706972854 0.24358861101075938 -1.8287143459766266
15 3.6757135247540487 0.09912930596261908 -5.097496381407263
16 0.37365163824014885 2.169458832265027 -1.8091444787322881
17 4.280958879444449 -1.678878547742294 3.314785590305787
18 -1.6676968938018824 -0.3805542144878455 -3.3027055468531006
19 3.962656252249076 0.014310577795239594 1.8126192912635515
20 1.4957524108805271 3.770071607161964 -2.301436088634042
21 1.279943411099162 -1.0494385529285526 -1.3422164700575294
22 -2.675113526450718 2.6122655171020805 0.906155391199922
23 -3.6915754487347203 2.0560314116268223 2.818015311084983
24 -5.504336113835122 -3.129700296810661 -1.2589579994560867
25 2.8040413980004106 -4.499912793355681 -3.0034533874041105
26 3.1243028599372313 2.713603200441974 -0.25947208651237114
27 -0.8916827141298977 -2.8763230709268357 -1.1592880024655057
28 0.7596018642047572 -2.996643304230306 -5.454804274622867
29 -3.450204438203862 -1.1722144682568656 3.8071920615069716
30 4.981002464920008 3.9100161031757463 1.7070179835048447
31 -1.1297618226892567 0.1589135214592513 3.802905632592434
32 5.521244695542036 2.643706193386776 -4.345019342965956
33 -2.316475173702921 -1.13045531946901 0.91757601410904
34 3.9438268750997794 -1.7626488819995016 3.0863711595411507
35 4.806997834004595 -0.08043949920095132 5.308247316606383
36 1.8596925213717486 0.3679716838052487 4.03153122357378
37 -1.4896361189738705 -2.934748460152159 -1.2994563408691666
38 1.7984768877008672 1.155495988511459 7.670534893466035
39 -1.3811917354288181 -0.7449863134113722 -0.7620480371184327
40 -0.4558491910187391 -0.9590573027244943 -3.907941111484704
41 -3.4504063898800776 -5.256244856690701 -2.085540881103384
42 2.873227340006359 -4.583483581984214 0.5614598483531994
43 -3.5126151864827615 4.69313216626785 3.150206058089657
44 -2.034456615008874 4.100858724209798 -1.324889832445722
45 2.3145085823545886 1.5036912653510814 1.5337004592809176
46 -1.7309339052783863 -2.64143776526403 0.9963955870504331
47 0.4394742809222259 -4.983147349385488 6.449005510967373
48 3.388653128160334 -0.16828377644215603 4.070166634923312
49 3.7188768321185393 -0.04268657147671129 -0.2774824069072587
50 -4.653454361078622 -3.597045986707282 -2.7771091073732537
51 -3.6770418095100768 2.5459615496097054 -2.981499621382948
52 -0.4626635660542013 0.9284772561317168 -3.1337666791044683
53 -3.748298168226152 -2.7024336816090377 2.8591853257503326
54 -5.31401211824696 0.1981169364156054 0.0657025424374515
55 -0.7811027790340299 -0.4518579741163195 -2.2449797701655028
56 -1.7657465936165186 -4.0608276793085984 -0.8772596997739747
57 0.7200190329595689 5.58832010175328 -0.07736115544317351
58 -4.3046237514352645 3.2390592036262875 -1.624478150784457
59 6.484248890470065 -0.5275235734247501 2.537788995961112
60 7.352594439900824 3.4239852734076375 -0.54952437975831
61 -3.6154049682481464 3.5319901094554753 -3.256081359587023
62 1.6487313614868215 1.084895321531273 -0.34855916165649825
63 -2.069876115957 1.398310595153564 -3.0525016838319217
64 -3.9017325371778697 3.792381644805199 -5.629009301238699
