ITEM: TIMESTEP
10000
ITEM: NUMBER OF ATOMS
64
ITEM: BOX BOUNDS xy xz yz pp pp pp
0.0000000000000000e+00 1.0600000000000822e+01 0.0000000000000000e+00
0.0000000000000000e+00 9.1798692801157618e+00 0.0000000000000000e+00
0.0000000000000000e+00 1.0300000000000001e+01 0.0000000000000000e+00
ITEM: ATOMS id type x y z
1 1 1.18087 5.20882 3.63769
2 1 1.25814 5.34724 8.90267
3 1 10.5795 7.4048 3.78084
4 1 10.5865 7.74039 9.24312
5 1 6.66728 0.920781 3.51251
6 1 6.41916 0.739973 8.71793
7 1 5.44187 3.07349 4.15392
8 1 5.3423 3.07779 9.35184
9 1 1.19553 0.799056 3.84349
10 1 1.48122 0.350364 9.04567
11 1 10.5445 3.01891 4.26324
12 1 10.3185 2.89854 9.08011
13 1 3.92156 0.798473 3.97152
14 1 3.97382 0.595965 9.12992
15 1 2.75212 3.16685 3.50495
16 1 2.6169 3.05406 8.79496
17 1 6.61056 5.48643 3.9477
18 1 6.43994 5.45948 9.28858
19 1 5.39245 7.61949 3.73764
20 1 5.41884 7.70776 9.05694
21 1 8.93264 5.2974 3.65727
22 1 9.22073 5.37457 8.70481
23 1 8.06934 7.78398 4.12353
24 1 8.02396 7.70018 9.23965
25 1 4.01659 5.37254 4.21334
26 1 3.98098 5.33541 9.11402
27 1 2.55919 7.4634 4.08141
28 1 2.90048 7.47597 9.02404
29 1 9.41562 0.749225 3.95517
30 1 9.25263 0.670545 8.77994
31 1 7.92127 3.13896 3.54919
32 1 7.80178 2.94642 8.49185
33 1 5.55554 1.70415 1.53928
34 1 5.1125 1.6438 6.65369
35 1 3.81049 3.86773 1.45668
36 1 3.9565 3.9677 6.78725
37 1 2.7148 6.20404 1.44915
38 1 2.61916 6.15383 6.32922
39 1 1.21459 8.39943 1.29969
40 1 1.49465 8.54347 6.2336
41 1 0.2381 1.60043 1.60556
42 1 0.188224 1.41212 6.79736
43 1 2.78287 1.26931 0.783972
44 1 2.72841 1.65703 6.55924
45 1 1.21541 3.80097 0.800775
46 1 1.41133 3.89201 6.2579
47 1 0.260433 6.1523 1.11457
48 1 10.8706 6.07447 6.82458
49 1 8.96208 3.71071 1.13833
50 1 9.16044 3.67076 6.37336
51 1 7.8367 6.1056 1.31584
52 1 7.87836 5.95353 6.87845
53 1 6.7486 8.56503 1.41479
54 1 6.56687 8.52922 6.46101
55 1 9.40016 8.61272 1.53059
56 1 9.36801 8.41125 6.49989
57 1 8.14271 1.51421 0.549887
58 1 7.67758 1.58035 6.01558
59 1 6.5184 3.87029 1.07784
60 1 6.56029 3.9867 6.03137
61 1 5.1603 6.30876 1.06118
62 1 5.31945 6.0231 6.89908
63 1 4.08958 8.51531 1.7532
64 1 4.00001 8.27821 6.20768
