 # Something
 64 atoms
 1 atom types
 0   10.600000000000822      xlo xhi 
 0   9.1798692801157618      ylo yhi 
 0   10.300000000000001      zlo zhi 
   0.0000000000000000        0.0000000000000000        0.0000000000000000      xy xz yz
 Atoms
 
           1           1   1.3250000000001028        5.3549237467341948        3.8625000000000003     
           2           1   1.3250000000001028        5.3549237467341948        9.0125000000000011     
           3           1   0.0000000000000000        7.6498910667631348        3.8625000000000003     
           4           1   0.0000000000000000        7.6498910667631348        9.0125000000000011     
           5           1   6.6250000000005134       0.76498910667631348        3.8625000000000003     
           6           1   6.6250000000005134       0.76498910667631348        9.0125000000000011     
           7           1   5.3000000000004110        3.0599564267052539        3.8625000000000003     
           8           1   5.3000000000004110        3.0599564267052539        9.0125000000000011     
           9           1   1.3250000000001028       0.76498910667631348        3.8625000000000003     
          10           1   1.3250000000001028       0.76498910667631348        9.0125000000000011     
          11           1   0.0000000000000000        3.0599564267052539        3.8625000000000003     
          12           1   0.0000000000000000        3.0599564267052539        9.0125000000000011     
          13           1   3.9750000000003083       0.76498910667631348        3.8625000000000003     
          14           1   3.9750000000003083       0.76498910667631348        9.0125000000000011     
          15           1   2.6500000000002055        3.0599564267052539        3.8625000000000003     
          16           1   2.6500000000002055        3.0599564267052539        9.0125000000000011     
          17           1   6.6250000000005134        5.3549237467341948        3.8625000000000003     
          18           1   6.6250000000005134        5.3549237467341948        9.0125000000000011     
          19           1   5.3000000000004110        7.6498910667631348        3.8625000000000003     
          20           1   5.3000000000004110        7.6498910667631348        9.0125000000000011     
          21           1   9.2750000000007198        5.3549237467341948        3.8625000000000003     
          22           1   9.2750000000007198        5.3549237467341948        9.0125000000000011     
          23           1   7.9500000000006166        7.6498910667631348        3.8625000000000003     
          24           1   7.9500000000006166        7.6498910667631348        9.0125000000000011     
          25           1   3.9750000000003083        5.3549237467341948        3.8625000000000003     
          26           1   3.9750000000003083        5.3549237467341948        9.0125000000000011     
          27           1   2.6500000000002055        7.6498910667631348        3.8625000000000003     
          28           1   2.6500000000002055        7.6498910667631348        9.0125000000000011     
          29           1   9.2750000000007198       0.76498910667631348        3.8625000000000003     
          30           1   9.2750000000007198       0.76498910667631348        9.0125000000000011     
          31           1   7.9500000000006166        3.0599564267052539        3.8625000000000003     
          32           1   7.9500000000006166        3.0599564267052539        9.0125000000000011     
          33           1   5.3000000000004110        1.5299782133526274        1.2875000000000001     
          34           1   5.3000000000004110        1.5299782133526274        6.4375000000000000     
          35           1   3.9750000000003083        3.8249455333815674        1.2875000000000001     
          36           1   3.9750000000003083        3.8249455333815674        6.4375000000000000     
          37           1   2.6500000000002055        6.1199128534105087        1.2875000000000001     
          38           1   2.6500000000002055        6.1199128534105087        6.4375000000000000     
          39           1   1.3250000000001028        8.4148801734394496        1.2875000000000001     
          40           1   1.3250000000001028        8.4148801734394496        6.4375000000000000     
          41           1   0.0000000000000000        1.5299782133526274        1.2875000000000001     
          42           1   0.0000000000000000        1.5299782133526274        6.4375000000000000     
          43           1   2.6500000000002055        1.5299782133526274        1.2875000000000001     
          44           1   2.6500000000002055        1.5299782133526274        6.4375000000000000     
          45           1   1.3250000000001028        3.8249455333815674        1.2875000000000001     
          46           1   1.3250000000001028        3.8249455333815674        6.4375000000000000     
          47           1   0.0000000000000000        6.1199128534105087        1.2875000000000001     
          48           1   0.0000000000000000        6.1199128534105087        6.4375000000000000     
          49           1   9.2750000000007198        3.8249455333815674        1.2875000000000001     
          50           1   9.2750000000007198        3.8249455333815674        6.4375000000000000     
          51           1   7.9500000000006166        6.1199128534105087        1.2875000000000001     
          52           1   7.9500000000006166        6.1199128534105087        6.4375000000000000     
          53           1   6.6250000000005134        8.4148801734394496        1.2875000000000001     
          54           1   6.6250000000005134        8.4148801734394496        6.4375000000000000     
          55           1   9.2750000000007198        8.4148801734394496        1.2875000000000001     
          56           1   9.2750000000007198        8.4148801734394496        6.4375000000000000     
          57           1   7.9500000000006166        1.5299782133526274        1.2875000000000001     
          58           1   7.9500000000006166        1.5299782133526274        6.4375000000000000     
          59           1   6.6250000000005134        3.8249455333815674        1.2875000000000001     
          60           1   6.6250000000005134        3.8249455333815674        6.4375000000000000     
          61           1   5.3000000000004110        6.1199128534105087        1.2875000000000001     
          62           1   5.3000000000004110        6.1199128534105087        6.4375000000000000     
          63           1   3.9750000000003083        8.4148801734394496        1.2875000000000001     
          64           1   3.9750000000003083        8.4148801734394496        6.4375000000000000     
