LAMMPS data file via write_data, version 29 Sep 2021, timestep = 10000

64 atoms
1 atom types

0 10.640000000001363 xlo xhi
0 9.214510296267605 ylo yhi
0 10.42 zlo zhi
0 0 0 xy xz yz

Masses

1 65.38

Atoms # atomic

1 1 1.5943465592362858 5.224254604222199 3.5715078866383325 0 0 0
2 1 1.3651728449016383 5.1890247099625615 9.017364356116692 0 0 0
3 1 10.316764481529502 7.762529372940699 3.826352594220277 -1 0 0
4 1 0.06508248385407384 7.589010931790368 9.082901088644839 0 0 0
5 1 6.556388062872063 0.8312145058495958 3.5519867767037714 0 0 0
6 1 6.548190490873359 0.9580978293757759 8.904670364650782 0 0 0
7 1 5.480571992882367 3.090971745361874 4.232558819581334 0 0 0
8 1 5.429675526568158 3.469811865953391 9.406300974319407 0 0 0
9 1 1.230889096879334 0.5867235906396963 4.170386405268753 0 0 0
10 1 1.4057863843331107 0.6368492473276474 9.505031639190168 0 0 0
11 1 0.25903287646972867 3.027465776306531 3.123866179621886 0 0 0
12 1 10.605521069609813 3.2077437761773906 9.026045752894657 -1 0 0
13 1 3.9537093541455937 0.7937593572282773 4.238640222854346 0 0 0
14 1 4.036178085794324 0.9310275552515426 9.25911337230192 0 0 0
15 1 2.7956774630984125 2.973235083655568 4.002577314049216 0 0 0
16 1 2.73102194034677 2.934693045358339 9.27346967998556 0 0 0
17 1 6.665879265987899 5.317846365571933 3.526530613842266 0 0 0
18 1 6.574765735893421 5.843609177007928 9.358329361684412 0 0 0
19 1 5.24797858088101 7.634291471102635 3.679951046255011 0 0 0
20 1 5.229823290563631 7.8631637964955985 9.610412323772927 0 0 0
21 1 9.488990351533111 5.2851194368818275 3.9841308706249388 0 0 0
22 1 9.10638945521525 5.794603077941454 9.055252808554584 0 0 0
23 1 7.70871248937589 7.635458648860315 4.180405900373399 0 0 0
24 1 7.884257170214969 7.898472677608323 8.646355396878507 0 0 0
25 1 4.083108586930712 5.179354617905137 3.616896747686365 0 0 0
26 1 3.819073248495585 5.4917887360974404 9.387988477721501 0 0 0
27 1 2.6121222520952174 7.623645042318522 4.425819302624309 0 0 0
28 1 2.6948940949828026 7.794216869936189 9.403047453521497 0 0 0
29 1 8.815576924418401 0.8995625675406632 4.6887304695049545 0 0 0
30 1 9.256109032835266 0.6462445973659744 8.928044750315811 0 0 0
31 1 7.996763924419507 3.1529667957710648 3.8187159814678524 0 0 0
32 1 7.9001989943459625 3.464478013200824 8.904534191303398 0 0 0
33 1 5.470230018218053 1.4107488888266262 0.9352486846298 0 0 0
34 1 5.440214070404871 1.6639789340075692 6.398315896546388 0 0 0
35 1 4.215506302084914 3.661381124544341 1.1930457898255356 0 0 0
36 1 4.147543519103294 3.926030361772095 6.324463381573158 0 0 0
37 1 2.5975302956519366 6.050047760206663 1.3065051971828678 0 0 0
38 1 2.8334940023333965 6.275261783326628 6.929417007031366 0 0 0
39 1 1.4043391987442517 8.297659073094232 1.288094548386956 0 0 0
40 1 1.1878664648698019 8.468730236451256 6.740155499256036 0 0 0
41 1 0.03832293355032532 1.1941190542112008 1.4808730467905198 0 0 0
42 1 0.16418676889172235 1.6131920616599273 6.590643431027508 0 0 0
43 1 2.795989573637711 1.5425637232499447 1.2451769617277844 0 0 0
44 1 2.6755916583323427 1.3654148677768865 7.033599708290976 0 0 0
45 1 1.173647904013851 3.3098036437840817 0.7693850421798798 0 0 0
46 1 1.4272047427958143 3.8312683411615405 6.418053486382423 0 0 0
47 1 10.56847101295063 5.915056377797667 1.0548772463269918 -1 0 0
48 1 0.508449662971028 6.083483385532277 5.971550962805109 0 0 0
49 1 9.163052658954332 3.9315902432272463 0.9150235160458235 0 0 0
50 1 9.409257936974106 3.9453091511090563 6.694479109810356 0 0 0
51 1 7.809211753556325 5.944560107778174 1.3984749249311281 0 0 0
52 1 7.909065130910424 6.147204416030228 6.393138389809485 0 0 0
53 1 6.738379355290691 8.215731880362645 1.3880305869831366 0 0 0
54 1 6.710965550484287 8.690194928985322 6.4107680007537144 0 0 0
55 1 9.030473721175754 8.144353686641342 1.5176843620590041 0 0 0
56 1 9.186646252667792 8.33539622784323 6.62750861809289 0 0 0
57 1 8.137105248188345 1.5762496793533003 1.0599899181967087 0 0 0
58 1 7.766471193671215 2.0627177437355915 6.800759708406813 0 0 0
59 1 6.758270733085129 3.473506346805109 1.406567022164618 0 0 0
60 1 6.558266439958675 4.030341437738072 6.410103307486572 0 0 0
61 1 5.0713386014958886 6.078143697580815 1.19091135248257 0 0 0
62 1 5.195858647268176 6.258040394492813 5.952140895371454 0 0 0
63 1 4.179728192125507 8.389397947866149 1.6355665049871015 0 0 0
64 1 4.108668344096869 8.301617084606075 6.551528769282278 0 0 0

Velocities

1 0.4319568212391378 -4.956296921401177 1.039323567273044
2 4.541695876703553 -7.307077816015502 2.9296156133919933
3 -1.0909308597131804 3.2373022867950096 -4.016367855234447
4 -4.774353141967287 6.401154490361549 0.6935652632510413
5 -1.331894989669336 5.582149201274452 0.0034182619623985716
6 -6.6512806020163175 -5.370357605359455 2.4346256887242066
7 4.869151419144038 0.9345078548431672 -2.808197035732106
8 -2.7800869860344593 0.4702369924955736 4.230199849591471
9 2.0254338941247414 -1.2649245644409113 1.2826676559446921
10 -4.17831201643246 1.5407395058980313 -0.258444126161573
11 1.6061688175749773 -1.8728291199046712 4.316690473019291
12 0.4167121033187643 -3.153509849278765 4.400283328914139
13 1.5116423852803995 -0.34282072912543105 3.4109642120314643
14 1.19142191686922 -2.1656341179169805 4.668255549604846
15 -0.5980028746020437 2.196845685289416 -2.519659698958144
16 -0.6848845704386494 -1.5922780584374348 0.9899607126072031
17 0.9558711530556346 -0.15198392450402542 -3.0841206141852373
18 -1.815722724649345 5.4935043791025 3.4575251576127406
19 -3.1463380335167748 2.461270419013368 -0.9982350868502152
20 -2.526390453053906 0.06695833173466 2.2470685015881484
21 2.4028089977512113 -4.8280574186504905 -3.675608877047907
22 -0.6883273748086485 -0.6564208842301775 -1.9125528860431018
23 2.2217637603822697 1.9643916965268982 1.9848606173550287
24 3.153350713499015 -1.8425664504028005 -1.031886840318168
25 1.787124627947821 -1.4768719780382702 3.060200680855095
26 3.957776278840936 4.432848430310964 0.3571617850294431
27 -0.5292062744127062 3.4165242776335347 -0.35732149500057686
28 0.2516286515449137 -0.4425682856873747 1.1412200882110808
29 6.966622585634742 -2.403423310072715 3.6801441162221673
30 -0.1170817813128904 -0.23993134775847838 -1.9749781137862528
31 0.8234956036498504 0.6571113540799265 3.820503283415855
32 3.361420732967129 -1.1645509602524806 -3.125924838277283
33 -7.65523082712123 -1.9185993905701748 -0.40704559111022326
34 -3.2472021398444615 3.1277365625972826 -1.109255687279593
35 -0.7183989343996822 3.8594343945790883 -5.330962191933038
36 1.2071105130075006 -4.814767649936914 -0.8731904418126385
37 -4.710055423547522 0.2327423762371792 2.102820200860632
38 -1.3167498988118453 -2.420220531982241 0.2419933987942164
39 2.5625630235850076 -5.732042919722341 0.32848717633103164
40 -2.0753127533446594 -6.445614910699321 -1.7989846952365545
41 1.415718417576311 -2.170130788904167 -2.4868427887288953
42 -1.403826527987643 3.642147414808393 0.864611120137978
43 -0.6624067271826406 1.0110201540853805 2.4342520162450105
44 -1.6682130512318107 -1.0758223025317053 -2.0757255284183365
45 -1.0712736176443545 -1.1925964775032365 -1.0415709216023799
46 -0.7618352732754682 3.609852351682558 1.438098856774851
47 1.8430999661510852 3.145101881087452 3.6388127472654186
48 -0.8151566081056544 -0.8524801939919451 -2.119405214730097
49 4.676292421569495 3.210868717154308 1.23145020506712
50 1.5707766683118616 -2.480962877991871 -2.656444804669236
51 1.395637985614521 -2.2143037123892375 -2.509585437820917
52 -0.004667028963520709 1.7963393638783993 -0.9424222871731085
53 0.7171937611475134 2.431020551456435 -6.297745122890011
54 3.594134715478294 1.5953942784254016 -4.900355134985243
55 -4.6494657304886085 1.2164296674500494 0.6347927410858277
56 5.924721439969696 -1.0175584398720996 -1.475025541411212
57 -2.6471051603288167 -2.0033492377829907 0.15680058768484406
58 0.2854708337529299 1.0517452969940393 3.6307881493032466
59 -3.6217175739525787 -2.163628871525164 -2.0586360714427436
60 2.035970326395488 2.083395985791387 0.4503855265649138
61 -5.524378167680674 1.078929685313514 -0.2324099616817094
62 1.9265792392107834 -1.356817153320299 -2.126157370860581
63 0.9987445244403387 4.471228106066921 -0.62354825757733
64 0.8357479507996567 2.672067107234 -0.4729366137613117
