LAMMPS (29 Sep 2021 - Update 1)
Reading data file ...
  triclinic box = (0.0000000 0.0000000 0.0000000) to (10.600000 9.1798693 10.060000) with tilt (0.0000000 0.0000000 0.0000000)
  1 by 1 by 1 MPI processor grid
  reading atoms ...
  64 atoms
  read_data CPU = 0.001 seconds
Neighbor list info ...
  update every 1 steps, delay 0 steps, check yes
  max neighbors/atom: 2000, page size: 100000
  master list distance cutoff = 7
  ghost atom cutoff = 7
  binsize = 3.5, bins = 4 3 3
  1 neighbor lists, perpetual/occasional/extra = 1 0 0
  (1) pair mlip, perpetual
      attributes: full, newton on
      pair build: full/bin/atomonly
      stencil: full/bin/3d
      bin: standard
Setting up Verlet run ...
  Unit style    : metal
  Current step  : 0
  Time step     : 0.001
Per MPI rank memory allocation (min/avg/max) = 3.089 | 3.089 | 3.089 Mbytes
Step Time Temp Volume Press 
       0            0         1380    978.90454     2333.856 
       1        0.001    1379.0572    978.90454    2365.9857 
       2        0.002    1376.2363    978.90454    2462.1439 
       3        0.003    1371.5555    978.90454    2621.8612 
       4        0.004     1365.039    978.90454     2844.464 
       5        0.005    1356.7182    978.90454    3124.7374 
       6        0.006    1346.6319    978.90454    3459.6289 
       7        0.007     1334.825    978.90454    3848.0258 
       8        0.008    1321.3468    978.90454    4291.0536 
       9        0.009    1306.2517    978.90454    4786.2586 
      10         0.01    1289.5989    978.90454    5332.4778 
Loop time of 0.21131 on 1 procs for 10 steps with 64 atoms

Performance: 4.089 ns/day, 5.870 hours/ns, 47.324 timesteps/s
98.0% CPU use with 1 MPI tasks x no OpenMP threads

MPI task timing breakdown:
Section |  min time  |  avg time  |  max time  |%varavg| %total
---------------------------------------------------------------
Pair    | 0.2112     | 0.2112     | 0.2112     |   0.0 | 99.95
Neigh   | 0          | 0          | 0          |   0.0 |  0.00
Comm    | 3.1684e-05 | 3.1684e-05 | 3.1684e-05 |   0.0 |  0.01
Output  | 3.7239e-05 | 3.7239e-05 | 3.7239e-05 |   0.0 |  0.02
Modify  | 2.7393e-05 | 2.7393e-05 | 2.7393e-05 |   0.0 |  0.01
Other   |            | 1.03e-05   |            |       |  0.00

Nlocal:        64.0000 ave          64 max          64 min
Histogram: 1 0 0 0 0 0 0 0 0 0
Nghost:        886.000 ave         886 max         886 min
Histogram: 1 0 0 0 0 0 0 0 0 0
Neighs:         0.00000 ave           0 max           0 min
Histogram: 1 0 0 0 0 0 0 0 0 0
FullNghs:      5504.00 ave        5504 max        5504 min
Histogram: 1 0 0 0 0 0 0 0 0 0

Total # of neighbors = 5504
Ave neighs/atom = 86.000000
Neighbor list builds = 0
Dangerous builds = 0
Setting up Verlet run ...
  Unit style    : metal
  Current step  : 10
  Time step     : 0.001
Per MPI rank memory allocation (min/avg/max) = 3.089 | 3.089 | 3.089 Mbytes
Step Time Temp Volume Press 
      10         0.01    1289.5989    978.90454    5332.4778 
      11        0.011    1271.4527    978.90454    5929.2001 
      12        0.012    1251.8819    978.90454    6573.6643 
      13        0.013    1230.9602    978.90454    7264.7182 
      14        0.014    1208.7658    978.90454    8001.4803 
      15        0.015    1185.3812    978.90454    8781.1914 
      16        0.016    1160.8933    978.90454    9602.3354 
      17        0.017    1135.3932    978.90454    10462.309 
      18        0.018    1108.9761    978.90454    11358.325 
      19        0.019    1081.7406    978.90454    12286.945 
      20         0.02    1053.7892    978.90454    13245.059 
      21        0.021    1025.2273    978.90454    14228.993 
      22        0.022    996.16301    978.90454    15234.312 
      23        0.023    966.70654    978.90454    16257.516 
      24        0.024    936.97008    978.90454    17294.068 
      25        0.025    907.06684    978.90454    18339.702 
      26        0.026    877.11061    978.90454    19390.267 
      27        0.027    847.21509    978.90454      20440.5 
      28        0.028     817.4937    978.90454    21488.579 
      29        0.029    788.05903    978.90454     22529.76 
      30         0.03    759.02178    978.90454    23561.286 
      31        0.031     730.4901    978.90454    24578.966 
      32        0.032    702.56874    978.90454    25579.628 
      33        0.033    675.35846    978.90454    26560.279 
      34        0.034    648.95495    978.90454    27516.434 
      35        0.035    623.44824    978.90454    28445.766 
      36        0.036    598.92202    978.90454    29343.505 
      37        0.037    575.45251    978.90454    30203.231 
      38        0.038    553.10867    978.90454    31026.071 
      39        0.039    531.95251    978.90454    31810.886 
      40         0.04      512.038    978.90454    32555.166 
      41        0.041    493.41076    978.90454    33257.803 
      42        0.042    476.10791    978.90454     33916.96 
      43        0.043    460.15771    978.90454    34530.718 
      44        0.044    445.57954    978.90454     35097.49 
      45        0.045    432.38427    978.90454    35617.785 
      46        0.046     420.5746    978.90454    36091.404 
      47        0.047      410.145    978.90454    36517.712 
      48        0.048    401.08219    978.90454    36897.457 
      49        0.049    393.36527    978.90454    37229.086 
      50         0.05    386.96633    978.90454    37514.721 
      51        0.051    381.85113    978.90454    37755.562 
      52        0.052    377.97941    978.90454     37951.69 
      53        0.053    375.30554    978.90454    38104.597 
      54        0.054    373.77896    978.90454    38214.042 
      55        0.055    373.34484    978.90454    38283.091 
      56        0.056    373.94477    978.90454    38312.549 
      57        0.057    375.51725    978.90454    38306.659 
      58        0.058    377.99833    978.90454    38266.867 
      59        0.059     381.3219    978.90454    38194.077 
      60         0.06    385.42024    978.90454    38091.546 
      61        0.061    390.22474    978.90454    37962.067 
      62        0.062    395.66618    978.90454    37806.765 
      63        0.063    401.67519    978.90454    37629.287 
      64        0.064    408.18275    978.90454    37431.687 
      65        0.065    415.12041    978.90454    37215.981 
      66        0.066    422.42038    978.90454    36981.753 
      67        0.067    430.01627    978.90454    36734.454 
      68        0.068    437.84368    978.90454    36475.912 
      69        0.069    445.84019    978.90454    36208.126 
      70         0.07     453.9458    978.90454    35933.981 
      71        0.071    462.10312    978.90454    35655.098 
      72        0.072     470.2576    978.90454    35373.453 
      73        0.073    478.35783    978.90454    35091.241 
      74        0.074    486.35569    978.90454    34809.956 
      75        0.075    494.20643    978.90454    34530.355 
      76        0.076    501.86878    978.90454    34254.079 
      77        0.077    509.30553    978.90454    33981.846 
      78        0.078    516.48364    978.90454    33716.391 
      79        0.079    523.37436    978.90454    33459.155 
      80         0.08    529.95295    978.90454    33212.112 
      81        0.081    536.19909    978.90454    32975.017 
      82        0.082     542.0971    978.90454    32746.389 
      83        0.083    547.63572    978.90454    32527.034 
      84        0.084    552.80828    978.90454    32319.736 
      85        0.085    557.61277    978.90454    32123.765 
      86        0.086    562.05169    978.90454    31939.547 
      87        0.087    566.13187    978.90454    31766.583 
      88        0.088    569.86431    978.90454    31603.862 
      89        0.089    573.26382    978.90454    31450.581 
      90         0.09    576.34891    978.90454    31307.741 
      91        0.091    579.14149    978.90454     31174.68 
      92        0.092    581.66647    978.90454    31050.548 
      93        0.093    583.95126    978.90454    30934.996 
      94        0.094    586.02523    978.90454    30826.166 
      95        0.095    587.91934    978.90454    30722.854 
      96        0.096    589.66538    978.90454    30626.139 
      97        0.097    591.29521    978.90454    30535.402 
      98        0.098    592.84033    978.90454    30449.849 
      99        0.099    594.33136    978.90454    30369.319 
     100          0.1    595.79743    978.90454    30292.321 
Loop time of 1.88597 on 1 procs for 90 steps with 64 atoms

Performance: 4.123 ns/day, 5.821 hours/ns, 47.721 timesteps/s
100.0% CPU use with 1 MPI tasks x no OpenMP threads

MPI task timing breakdown:
Section |  min time  |  avg time  |  max time  |%varavg| %total
---------------------------------------------------------------
Pair    | 1.8849     | 1.8849     | 1.8849     |   0.0 | 99.94
Neigh   | 0.00020622 | 0.00020622 | 0.00020622 |   0.0 |  0.01
Comm    | 0.00028883 | 0.00028883 | 0.00028883 |   0.0 |  0.02
Output  | 0.00032228 | 0.00032228 | 0.00032228 |   0.0 |  0.02
Modify  | 0.00015624 | 0.00015624 | 0.00015624 |   0.0 |  0.01
Other   |            | 7.326e-05  |            |       |  0.00

Nlocal:        64.0000 ave          64 max          64 min
Histogram: 1 0 0 0 0 0 0 0 0 0
Nghost:        886.000 ave         886 max         886 min
Histogram: 1 0 0 0 0 0 0 0 0 0
Neighs:         0.00000 ave           0 max           0 min
Histogram: 1 0 0 0 0 0 0 0 0 0
FullNghs:      5954.00 ave        5954 max        5954 min
Histogram: 1 0 0 0 0 0 0 0 0 0

Total # of neighbors = 5954
Ave neighs/atom = 93.031250
Neighbor list builds = 1
Dangerous builds = 0
Setting up Verlet run ...
  Unit style    : metal
  Current step  : 100
  Time step     : 0.001
Per MPI rank memory allocation (min/avg/max) = 3.089 | 3.089 | 3.089 Mbytes
Step Time Temp Volume Press 
     100          0.1    595.79743    978.90454    30292.321 
     110         0.11    613.21864    978.90454    29566.002 
     120         0.12    633.42362    978.90454    29063.147 
     130         0.13    635.37801    978.90454    29177.464 
     140         0.14    613.98226    978.90454    29982.524 
     150         0.15     593.4612    978.90454    30873.886 
     160         0.16    597.32978    978.90454    31133.078 
     170         0.17    629.71088    978.90454    30624.477 
     180         0.18    671.60543    978.90454    29921.001 
     190         0.19    691.05378    978.90454    29970.641 
     200          0.2    675.14537    978.90454     31081.15 
     210         0.21     643.6053    978.90454    32639.042 
     220         0.22    627.50347    978.90454    33704.375 
     230         0.23    636.51302    978.90454    33919.275 
     240         0.24    653.47138    978.90454    33689.451 
     250         0.25     662.4645    978.90454    33534.967 
     260         0.26    667.29311    978.90454    33484.678 
     270         0.27    680.24623    978.90454    33264.278 
     280         0.28    702.43906    978.90454    32823.199 
     290         0.29    720.72822    978.90454    32457.343 
     300          0.3    728.34665    978.90454    32440.288 
     310         0.31    738.59303    978.90454    32473.172 
     320         0.32    759.70929    978.90454     32314.86 
     330         0.33    779.70533    978.90454    32089.032 
     340         0.34    791.27874    978.90454    31976.689 
     350         0.35     792.5011    978.90454    32077.661 
     360         0.36    770.50696    978.90454    32774.705 
     370         0.37    721.99375    978.90454    34187.109 
     380         0.38    674.42456    978.90454    35593.375 
     390         0.39    656.79698    978.90454    36175.727 
     400          0.4    668.33173    978.90454    35860.462 
     410         0.41    690.53967    978.90454    35100.338 
     420         0.42    706.02355    978.90454    34360.946 
     430         0.43    708.86671    978.90454    33899.274 
     440         0.44     708.1139    978.90454    33533.408 
     450         0.45    712.08857    978.90454    33024.054 
     460         0.46    718.07562    978.90454    32443.888 
     470         0.47    724.54342    978.90454    31888.462 
     480         0.48    731.90065    978.90454    31390.009 
     490         0.49    729.42975    978.90454    31209.722 
     500          0.5    709.13422    978.90454    31474.142 
     510         0.51    680.21035    978.90454    31910.183 
     520         0.52    659.34685    978.90454    32056.996 
     530         0.53    653.56891    978.90454    31737.882 
     540         0.54    652.90763    978.90454    31163.253 
     550         0.55    646.60211    978.90454    30549.426 
     560         0.56    637.20432    978.90454    29815.799 
     570         0.57    632.02687    978.90454    28921.552 
     580         0.58    629.87937    978.90454     27971.22 
     590         0.59    623.12687    978.90454    27187.856 
     600          0.6    609.31424    978.90454    26548.573 
     610         0.61    594.98325    978.90454    25931.152 
     620         0.62    589.98327    978.90454    25072.634 
     630         0.63    602.87552    978.90454     23800.78 
     640         0.64    632.80982    978.90454    22229.304 
     650         0.65    660.25809    978.90454     20949.84 
     660         0.66    661.89313    978.90454    20658.255 
     670         0.67    636.32204    978.90454    21348.526 
     680         0.68    604.23403    978.90454    22410.857 
     690         0.69    584.04902    978.90454    23371.703 
     700          0.7    575.73105    978.90454    24142.183 
     710         0.71    568.94008    978.90454    24968.184 
     720         0.72    555.30941    978.90454    26037.606 
     730         0.73    536.40187    978.90454    27214.809 
     740         0.74    526.08257    978.90454    28061.651 
     750         0.75    536.14181    978.90454    28222.221 
     760         0.76    560.32996    978.90454    27859.697 
     770         0.77    582.87277    978.90454     27463.64 
     780         0.78    594.57677    978.90454    27430.893 
     790         0.79    595.01165    978.90454    27783.874 
     800          0.8    591.14039    978.90454    28269.636 
     810         0.81    595.42987    978.90454    28500.517 
     820         0.82    614.34791    978.90454    28306.737 
     830         0.83    638.71272    978.90454    28006.442 
     840         0.84    654.92987    978.90454    27941.941 
     850         0.85    660.07345    978.90454    28168.013 
     860         0.86    661.30685    978.90454    28470.653 
     870         0.87    667.43981    978.90454    28597.817 
     880         0.88    683.32851    978.90454    28354.331 
     890         0.89        709.5    978.90454    27772.012 
     900          0.9    741.78812    978.90454    27053.399 
     910         0.91    769.52643    978.90454    26519.823 
     920         0.92    778.31924    978.90454    26635.181 
     930         0.93    759.23752    978.90454    27741.395 
     940         0.94    718.36601    978.90454    29559.345 
     950         0.95    673.29709    978.90454    31519.457 
     960         0.96    635.15985    978.90454     33243.23 
     970         0.97     603.6075    978.90454    34586.661 
     980         0.98    579.67286    978.90454    35501.902 
     990         0.99    569.16998    978.90454    35925.055 
    1000            1    575.00751    978.90454     35896.39 
Loop time of 18.6038 on 1 procs for 900 steps with 64 atoms

Performance: 4.180 ns/day, 5.742 hours/ns, 48.377 timesteps/s
100.0% CPU use with 1 MPI tasks x no OpenMP threads

MPI task timing breakdown:
Section |  min time  |  avg time  |  max time  |%varavg| %total
---------------------------------------------------------------
Pair    | 18.595     | 18.595     | 18.595     |   0.0 | 99.95
Neigh   | 0.0030454  | 0.0030454  | 0.0030454  |   0.0 |  0.02
Comm    | 0.0029869  | 0.0029869  | 0.0029869  |   0.0 |  0.02
Output  | 0.00039079 | 0.00039079 | 0.00039079 |   0.0 |  0.00
Modify  | 0.0014977  | 0.0014977  | 0.0014977  |   0.0 |  0.01
Other   |            | 0.0006749  |            |       |  0.00

Nlocal:        64.0000 ave          64 max          64 min
Histogram: 1 0 0 0 0 0 0 0 0 0
Nghost:        886.000 ave         886 max         886 min
Histogram: 1 0 0 0 0 0 0 0 0 0
Neighs:         0.00000 ave           0 max           0 min
Histogram: 1 0 0 0 0 0 0 0 0 0
FullNghs:      5996.00 ave        5996 max        5996 min
Histogram: 1 0 0 0 0 0 0 0 0 0

Total # of neighbors = 5996
Ave neighs/atom = 93.687500
Neighbor list builds = 15
Dangerous builds = 0
Setting up Verlet run ...
  Unit style    : metal
  Current step  : 1000
  Time step     : 0.001
Per MPI rank memory allocation (min/avg/max) = 3.089 | 3.089 | 3.089 Mbytes
Step Time Temp Volume Press 
    1000            1    575.00751    978.90454     35896.39 
    1100          1.1     716.6321    978.90454    35307.849 
    1200          1.2    686.35167    978.90454    39984.843 
    1300          1.3    723.01229    978.90454    29805.106 
    1400          1.4    674.08278    978.90454    24902.486 
    1500          1.5    698.40344    978.90454        26129 
    1600          1.6    684.51564    978.90454    31451.256 
    1700          1.7    703.20901    978.90454    34894.622 
    1800          1.8    671.20573    978.90454    32413.175 
    1900          1.9    607.94891    978.90454    27220.682 
    2000            2    656.83027    978.90454    27480.641 
    2100          2.1    676.15653    978.90454    31177.709 
    2200          2.2    641.32519    978.90454    36228.543 
    2300          2.3    743.22999    978.90454    32315.341 
    2400          2.4    594.10288    978.90454    32851.123 
    2500          2.5    595.94169    978.90454    26017.253 
    2600          2.6    700.46257    978.90454    22635.802 
    2700          2.7      787.747    978.90454    26785.889 
    2800          2.8    694.32822    978.90454    31841.795 
    2900          2.9    740.23699    978.90454    30018.062 
    3000            3    671.57864    978.90454    32099.088 
    3100          3.1    677.46407    978.90454    27155.371 
    3200          3.2     632.4763    978.90454    23872.026 
    3300          3.3      640.801    978.90454     24522.89 
    3400          3.4    686.64895    978.90454    30600.855 
    3500          3.5    690.94298    978.90454    31773.604 
    3600          3.6    693.99624    978.90454    34075.344 
    3700          3.7    702.57204    978.90454    32605.948 
    3800          3.8    606.70529    978.90454    29822.481 
    3900          3.9    580.31248    978.90454    25220.542 
    4000            4     549.1682    978.90454    28155.082 
    4100          4.1    750.40192    978.90454    27592.223 
    4200          4.2    724.12359    978.90454    32657.024 
    4300          4.3    746.55798    978.90454    33541.049 
    4400          4.4    760.30903    978.90454    33960.727 
    4500          4.5     631.8164    978.90454    32476.255 
    4600          4.6    618.29689    978.90454    27803.558 
    4700          4.7    672.21418    978.90454    25704.726 
    4800          4.8    674.69903    978.90454    29258.626 
    4900          4.9    631.62201    978.90454    37116.548 
    5000            5    787.60859    978.90454    30961.426 
    5100          5.1    679.41429    978.90454    32166.399 
    5200          5.2    650.52292    978.90454    29758.357 
    5300          5.3    636.09918    978.90454    28459.773 
    5400          5.4    654.21194    978.90454    28367.859 
    5500          5.5     666.1058    978.90454    30841.903 
    5600          5.6    639.87772    978.90454    36885.505 
    5700          5.7     825.3539    978.90454    36762.047 
    5800          5.8     736.4181    978.90454    36230.684 
    5900          5.9    713.35476    978.90454    32254.155 
    6000            6    690.83448    978.90454    31720.339 
    6100          6.1    659.74205    978.90454    30611.006 
    6200          6.2    702.63978    978.90454    29209.048 
    6300          6.3    648.05115    978.90454    38753.398 
    6400          6.4    714.02591    978.90454    40019.166 
    6500          6.5    719.19997    978.90454     33049.61 
    6600          6.6      760.174    978.90454    27675.319 
    6700          6.7    614.45989    978.90454    32877.622 
    6800          6.8    715.37281    978.90454    30146.065 
    6900          6.9    727.15382    978.90454    32734.117 
    7000            7    733.40164    978.90454    41540.312 
    7100          7.1    806.96639    978.90454    38922.924 
    7200          7.2     823.7364    978.90454    32058.773 
    7300          7.3    636.43313    978.90454    34198.422 
    7400          7.4    666.78574    978.90454    33486.338 
    7500          7.5    704.40935    978.90454    31912.318 
    7600          7.6    651.18567    978.90454    32686.623 
    7700          7.7    778.36407    978.90454    30294.779 
    7800          7.8    738.89237    978.90454    30956.612 
    7900          7.9    592.67351    978.90454    35028.144 
    8000            8    604.24514    978.90454    34821.425 
    8100          8.1    774.78845    978.90454    25244.261 
    8200          8.2     611.6846    978.90454    28879.744 
    8300          8.3    627.71154    978.90454    29936.744 
    8400          8.4     747.2425    978.90454    34049.107 
    8500          8.5    719.92879    978.90454    35337.941 
    8600          8.6     757.6294    978.90454      32661.4 
    8700          8.7    761.90968    978.90454    27523.536 
    8800          8.8    624.54504    978.90454     29507.74 
    8900          8.9    699.23894    978.90454    29571.711 
    9000            9    717.74285    978.90454    33241.167 
    9100          9.1     811.9961    978.90454    27876.381 
    9200          9.2    602.30605    978.90454    27366.291 
    9300          9.3    654.46756    978.90454    24125.627 
    9400          9.4    662.31667    978.90454    28992.847 
    9500          9.5    737.88987    978.90454    28628.122 
    9600          9.6    614.58828    978.90454     33502.01 
    9700          9.7      716.187    978.90454    32068.175 
    9800          9.8    671.54971    978.90454    30534.649 
    9900          9.9    615.97194    978.90454    25047.599 
   10000           10    616.80766    978.90454    24931.659 
Loop time of 196.235 on 1 procs for 9000 steps with 64 atoms

Performance: 3.963 ns/day, 6.057 hours/ns, 45.863 timesteps/s
100.0% CPU use with 1 MPI tasks x no OpenMP threads

MPI task timing breakdown:
Section |  min time  |  avg time  |  max time  |%varavg| %total
---------------------------------------------------------------
Pair    | 196.15     | 196.15     | 196.15     |   0.0 | 99.95
Neigh   | 0.033544   | 0.033544   | 0.033544   |   0.0 |  0.02
Comm    | 0.032259   | 0.032259   | 0.032259   |   0.0 |  0.02
Output  | 0.00050958 | 0.00050958 | 0.00050958 |   0.0 |  0.00
Modify  | 0.016073   | 0.016073   | 0.016073   |   0.0 |  0.01
Other   |            | 0.007048   |            |       |  0.00

Nlocal:        64.0000 ave          64 max          64 min
Histogram: 1 0 0 0 0 0 0 0 0 0
Nghost:        886.000 ave         886 max         886 min
Histogram: 1 0 0 0 0 0 0 0 0 0
Neighs:         0.00000 ave           0 max           0 min
Histogram: 1 0 0 0 0 0 0 0 0 0
FullNghs:      5870.00 ave        5870 max        5870 min
Histogram: 1 0 0 0 0 0 0 0 0 0

Total # of neighbors = 5870
Ave neighs/atom = 91.718750
Neighbor list builds = 160
Dangerous builds = 0
System init for write_data ...
Total wall time: 0:03:37
