ITEM: TIMESTEP
10000
ITEM: NUMBER OF ATOMS
64
ITEM: BOX BOUNDS xy xz yz pp pp pp
0.0000000000000000e+00 1.0600000000000822e+01 0.0000000000000000e+00
0.0000000000000000e+00 9.1798692801157618e+00 0.0000000000000000e+00
0.0000000000000000e+00 1.0060000000000000e+01 0.0000000000000000e+00
ITEM: ATOMS id type x y z
1 1 1.43004 5.48962 3.84039
2 1 1.21679 5.33337 8.91412
3 1 0.000786422 7.83217 3.68463
4 1 10.5128 7.64606 9.31241
5 1 6.71834 0.897774 3.36139
6 1 6.61627 0.773523 8.49129
7 1 5.4007 3.21735 4.02902
8 1 5.46114 3.00838 9.14195
9 1 1.51078 1.03179 3.957
10 1 1.36822 0.564072 8.98585
11 1 0.0290601 2.87229 3.65558
12 1 10.7315 3.01075 8.89362
13 1 4.06311 0.81679 3.88643
14 1 3.89322 0.946403 8.53225
15 1 2.71995 3.24922 3.50486
16 1 2.53829 3.12121 9.13407
17 1 6.90657 5.32857 3.5639
18 1 6.35216 5.35597 8.7827
19 1 5.29244 7.52731 3.89031
20 1 5.17899 7.58774 8.82391
21 1 9.42603 5.48203 3.45958
22 1 9.08973 5.38451 8.92954
23 1 7.9623 7.48739 3.43151
24 1 7.75806 7.59226 8.65344
25 1 3.94689 5.52423 3.28404
26 1 3.88143 5.17456 8.87247
27 1 2.55504 7.7906 3.90145
28 1 2.69647 7.54968 8.83217
29 1 9.46005 0.717695 4.17213
30 1 9.27004 0.56616 8.68265
31 1 7.97284 3.11869 3.90278
32 1 8.18461 3.07688 8.78414
33 1 5.23015 1.40926 1.08379
34 1 5.14769 1.57992 5.88559
35 1 3.82935 3.86532 1.3083
36 1 3.87674 3.83535 6.48616
37 1 2.56112 6.15057 1.04582
38 1 2.63928 6.13528 6.64111
39 1 1.39618 8.52991 1.5012
40 1 1.65076 8.33719 6.51165
41 1 10.6434 1.66547 0.869897
42 1 0.0684623 1.67192 6.48067
43 1 2.89874 1.49294 1.40016
44 1 2.58184 1.48663 6.33958
45 1 1.12512 3.96299 1.34919
46 1 1.30698 3.92529 6.06384
47 1 10.4985 6.12612 1.44664
48 1 10.5971 5.92365 6.46976
49 1 9.20748 3.89327 1.20597
50 1 9.23751 3.72835 6.1002
51 1 8.09377 6.01503 1.11269
52 1 7.85277 5.92234 6.41162
53 1 6.7018 8.64101 1.28254
54 1 6.71501 8.29938 6.05667
55 1 9.22238 8.45736 1.38324
56 1 9.27115 8.2291 6.29374
57 1 7.95362 1.69172 1.31019
58 1 7.82907 1.43424 6.11742
59 1 6.2315 4.03122 1.42679
60 1 6.52875 3.60623 6.63069
61 1 5.322 6.23312 1.0824
62 1 5.29896 5.80126 5.81059
63 1 4.00588 8.41136 1.24323
64 1 4.13225 8.18797 6.27705
