ITEM: TIMESTEP
10000
ITEM: NUMBER OF ATOMS
64
ITEM: BOX BOUNDS xy xz yz pp pp pp
0.0000000000000000e+00 1.0600000000000822e+01 0.0000000000000000e+00
0.0000000000000000e+00 9.1798692801157618e+00 0.0000000000000000e+00
0.0000000000000000e+00 1.0179999999999998e+01 0.0000000000000000e+00
ITEM: ATOMS id type x y z
1 1 1.21109 5.46063 4.10744
2 1 1.44449 5.28036 8.61771
3 1 10.5131 7.90288 3.67922
4 1 0.145049 7.61271 8.97589
5 1 6.38498 0.696911 4.18264
6 1 6.68328 0.690521 9.09153
7 1 5.27 2.9244 3.5233
8 1 5.43114 2.90044 8.87509
9 1 1.2233 0.819884 3.7271
10 1 1.63079 0.609197 8.46428
11 1 0.0857653 3.27242 3.63069
12 1 0.0290998 2.89691 9.2047
13 1 3.88475 0.790089 4.41123
14 1 4.16119 0.764227 9.18305
15 1 2.69183 2.98872 3.78813
16 1 2.56476 2.94203 8.36079
17 1 6.68829 5.44164 4.108
18 1 6.72009 5.35889 9.14367
19 1 5.1271 7.60888 4.02259
20 1 5.37383 7.58388 8.72171
21 1 9.27494 5.41782 3.66587
22 1 9.26577 5.36134 8.58755
23 1 7.71131 7.75571 4.0685
24 1 7.87718 7.67378 8.72847
25 1 3.87321 5.47087 3.58567
26 1 4.0656 5.48679 9.0408
27 1 2.41525 7.56685 3.81192
28 1 2.73197 7.65758 9.25918
29 1 8.75689 0.858116 3.5212
30 1 9.50937 0.59148 8.8524
31 1 8.02939 3.20098 3.77642
32 1 8.01921 2.99243 8.87497
33 1 5.63796 1.60513 1.24473
34 1 5.19515 1.74706 6.64488
35 1 4.18292 3.73725 1.18116
36 1 3.89687 3.76638 6.06592
37 1 2.48717 6.28321 1.37011
38 1 2.73258 5.87788 6.36855
39 1 1.26583 8.62293 1.51994
40 1 1.21757 8.40852 6.17158
41 1 10.4702 1.74751 1.63725
42 1 10.5338 1.35834 6.04406
43 1 2.58257 1.28613 1.1586
44 1 2.24007 1.3107 6.33427
45 1 1.64064 3.98788 1.32304
46 1 1.34436 3.86958 6.25581
47 1 10.5794 6.04764 1.56
48 1 10.5882 6.31863 6.31174
49 1 9.24805 3.89052 1.15693
50 1 9.40686 3.58284 6.16353
51 1 7.97233 6.24604 1.21095
52 1 8.1145 5.96673 6.13919
53 1 6.76244 8.45027 1.77791
54 1 6.69778 8.511 6.49301
55 1 9.19537 8.19873 0.951997
56 1 9.08668 8.43507 6.40779
57 1 8.00997 1.52175 0.917102
58 1 7.80453 1.61714 6.54388
59 1 6.83879 3.84872 1.54485
60 1 6.6809 3.86132 6.57159
61 1 5.50876 6.30788 1.06997
62 1 5.12502 5.99435 6.06148
63 1 4.18168 8.48371 1.45141
64 1 3.7769 8.28562 6.51506
