LAMMPS (29 Sep 2021 - Update 1)
Reading data file ...
  triclinic box = (0.0000000 0.0000000 0.0000000) to (10.560000 9.1452283 10.420000) with tilt (0.0000000 0.0000000 0.0000000)
  1 by 1 by 1 MPI processor grid
  reading atoms ...
  64 atoms
  read_data CPU = 0.001 seconds
Neighbor list info ...
  update every 1 steps, delay 0 steps, check yes
  max neighbors/atom: 2000, page size: 100000
  master list distance cutoff = 7
  ghost atom cutoff = 7
  binsize = 3.5, bins = 4 3 3
  1 neighbor lists, perpetual/occasional/extra = 1 0 0
  (1) pair mlip, perpetual
      attributes: full, newton on
      pair build: full/bin/atomonly
      stencil: full/bin/3d
      bin: standard
Setting up Verlet run ...
  Unit style    : metal
  Current step  : 0
  Time step     : 0.001
Per MPI rank memory allocation (min/avg/max) = 3.089 | 3.089 | 3.089 Mbytes
Step Time Temp Volume Press 
       0            0         1380     1006.297   -8770.4059 
       1        0.001    1379.0517     1006.297   -8737.0066 
       2        0.002    1376.2118     1006.297   -8636.9803 
       3        0.003    1371.4939     1006.297   -8470.7528 
       4        0.004    1364.9189     1006.297   -8238.9819 
       5        0.005    1356.5152     1006.297   -7942.6498 
       6        0.006    1346.3188     1006.297   -7585.3353 
       7        0.007    1334.3741     1006.297    -7168.738 
       8        0.008    1320.7332     1006.297   -6698.3531 
       9        0.009    1305.4555     1006.297   -6173.5215 
      10         0.01    1288.6067     1006.297   -5596.4809 
Loop time of 0.21474 on 1 procs for 10 steps with 64 atoms

Performance: 4.023 ns/day, 5.965 hours/ns, 46.568 timesteps/s
92.4% CPU use with 1 MPI tasks x no OpenMP threads

MPI task timing breakdown:
Section |  min time  |  avg time  |  max time  |%varavg| %total
---------------------------------------------------------------
Pair    | 0.21462    | 0.21462    | 0.21462    |   0.0 | 99.94
Neigh   | 0          | 0          | 0          |   0.0 |  0.00
Comm    | 3.4487e-05 | 3.4487e-05 | 3.4487e-05 |   0.0 |  0.02
Output  | 4.1861e-05 | 4.1861e-05 | 4.1861e-05 |   0.0 |  0.02
Modify  | 2.9837e-05 | 2.9837e-05 | 2.9837e-05 |   0.0 |  0.01
Other   |            | 1.202e-05  |            |       |  0.01

Nlocal:        64.0000 ave          64 max          64 min
Histogram: 1 0 0 0 0 0 0 0 0 0
Nghost:        886.000 ave         886 max         886 min
Histogram: 1 0 0 0 0 0 0 0 0 0
Neighs:         0.00000 ave           0 max           0 min
Histogram: 1 0 0 0 0 0 0 0 0 0
FullNghs:      6272.00 ave        6272 max        6272 min
Histogram: 1 0 0 0 0 0 0 0 0 0

Total # of neighbors = 6272
Ave neighs/atom = 98.000000
Neighbor list builds = 0
Dangerous builds = 0
Setting up Verlet run ...
  Unit style    : metal
  Current step  : 10
  Time step     : 0.001
Per MPI rank memory allocation (min/avg/max) = 3.089 | 3.089 | 3.089 Mbytes
Step Time Temp Volume Press 
      10         0.01    1288.6067     1006.297   -5596.4809 
      11        0.011    1270.2585     1006.297   -4968.9631 
      12        0.012    1250.4891     1006.297   -4296.8391 
      13        0.013    1229.3826     1006.297   -3584.3204 
      14        0.014     1207.028     1006.297   -2830.8893 
      15        0.015    1183.5197     1006.297    -2040.709 
      16        0.016    1158.9569     1006.297   -1219.0585 
      17        0.017    1133.4436     1006.297   -367.12035 
      18        0.018    1107.0887     1006.297    509.51327 
      19        0.019    1080.0058     1006.297    1407.6966 
      20         0.02    1052.3125     1006.297    2326.0776 
      21        0.021    1024.1297     1006.297    3260.1081 
      22        0.022    995.58109     1006.297    4205.8408 
      23        0.023    966.79209     1006.297      5160.43 
      24        0.024    937.88939     1006.297    6121.7718 
      25        0.025    908.99982     1006.297    7085.3549 
      26        0.026    880.24897     1006.297    8046.9443 
      27        0.027    851.76029     1006.297    9002.5062 
      28        0.028    823.65439     1006.297    9949.1707 
      29        0.029    796.04802     1006.297    10882.453 
      30         0.03    769.05316     1006.297     11800.28 
      31        0.031    742.77607     1006.297    12698.416 
      32        0.032    717.31618     1006.297    13572.171 
      33        0.033    692.76535     1006.297    14418.685 
      34        0.034    669.20758     1006.297    15238.269 
      35        0.035    646.71812     1006.297    16026.334 
      36        0.036    625.36283     1006.297    16782.289 
      37        0.037    605.19791     1006.297    17503.169 
      38        0.038    586.26935     1006.297    18186.377 
      39        0.039    568.61289     1006.297     18832.33 
      40         0.04    552.25404     1006.297    19440.244 
      41        0.041    537.20811     1006.297    20009.627 
      42        0.042    523.48037     1006.297    20538.744 
      43        0.043    511.06639     1006.297    21027.691 
      44        0.044    499.95256     1006.297    21476.895 
      45        0.045    490.11656     1006.297    21885.939 
      46        0.046    481.52797     1006.297    22255.422 
      47        0.047    474.14909     1006.297    22585.723 
      48        0.048    467.93549     1006.297     22876.47 
      49        0.049    462.83696     1006.297    23130.244 
      50         0.05    458.79853     1006.297     23348.77 
      51        0.051    455.76117     1006.297    23533.271 
      52        0.052    453.66261     1006.297    23686.732 
      53        0.053    452.43826     1006.297    23809.688 
      54        0.054    452.02201     1006.297     23903.37 
      55        0.055    452.34688     1006.297    23969.119 
      56        0.056    453.34586     1006.297    24009.622 
      57        0.057    454.95256     1006.297    24027.233 
      58        0.058    457.10172     1006.297    24023.499 
      59        0.059    459.72974     1006.297    24000.558 
      60         0.06    462.77511     1006.297    23959.988 
      61        0.061    466.17867     1006.297    23903.997 
      62        0.062    469.88388     1006.297    23833.655 
      63        0.063    473.83716     1006.297     23750.74 
      64        0.064    477.98801     1006.297    23656.462 
      65        0.065    482.28897     1006.297    23550.903 
      66        0.066    486.69594     1006.297      23438.6 
      67        0.067    491.16844     1006.297    23321.466 
      68        0.068    495.66941     1006.297    23200.399 
      69        0.069    500.16504     1006.297    23077.116 
      70         0.07    504.62446     1006.297    22951.053 
      71        0.071    509.01982     1006.297    22824.718 
      72        0.072    513.32629     1006.297    22699.522 
      73        0.073    517.52174     1006.297     22575.38 
      74        0.074    521.58655     1006.297    22452.974 
      75        0.075    525.50368     1006.297    22334.006 
      76        0.076    529.25855     1006.297    22218.547 
      77        0.077    532.83879     1006.297    22108.173 
      78        0.078    536.23415     1006.297    22003.471 
      79        0.079    539.43629     1006.297    21905.517 
      80         0.08    542.43872     1006.297    21813.445 
      81        0.081    545.23659     1006.297    21726.248 
      82        0.082    547.82638     1006.297     21642.21 
      83        0.083    550.20623     1006.297    21563.376 
      84        0.084    552.37623     1006.297      21490.8 
      85        0.085    554.33798     1006.297    21425.251 
      86        0.086    556.09427     1006.297    21363.931 
      87        0.087    557.64958     1006.297    21308.756 
      88        0.088    559.01003     1006.297    21258.665 
      89        0.089    560.18276     1006.297    21212.645 
      90         0.09    561.17646     1006.297    21172.095 
      91        0.091    562.00142     1006.297    21137.149 
      92        0.092     562.6689     1006.297     21108.67 
      93        0.093    563.19118     1006.297    21085.846 
      94        0.094     563.5815     1006.297    21066.796 
      95        0.095    563.85398     1006.297    21051.516 
      96        0.096    564.02353     1006.297    21039.851 
      97        0.097    564.10568     1006.297    21031.986 
      98        0.098    564.11643     1006.297    21026.789 
      99        0.099    564.07195     1006.297    21024.029 
     100          0.1    563.98865     1006.297    21020.955 
Loop time of 1.8072 on 1 procs for 90 steps with 64 atoms

Performance: 4.303 ns/day, 5.578 hours/ns, 49.801 timesteps/s
100.0% CPU use with 1 MPI tasks x no OpenMP threads

MPI task timing breakdown:
Section |  min time  |  avg time  |  max time  |%varavg| %total
---------------------------------------------------------------
Pair    | 1.8062     | 1.8062     | 1.8062     |   0.0 | 99.94
Neigh   | 0.00020595 | 0.00020595 | 0.00020595 |   0.0 |  0.01
Comm    | 0.00028814 | 0.00028814 | 0.00028814 |   0.0 |  0.02
Output  | 0.00032398 | 0.00032398 | 0.00032398 |   0.0 |  0.02
Modify  | 0.00015989 | 0.00015989 | 0.00015989 |   0.0 |  0.01
Other   |            | 7.355e-05  |            |       |  0.00

Nlocal:        64.0000 ave          64 max          64 min
Histogram: 1 0 0 0 0 0 0 0 0 0
Nghost:        886.000 ave         886 max         886 min
Histogram: 1 0 0 0 0 0 0 0 0 0
Neighs:         0.00000 ave           0 max           0 min
Histogram: 1 0 0 0 0 0 0 0 0 0
FullNghs:      5814.00 ave        5814 max        5814 min
Histogram: 1 0 0 0 0 0 0 0 0 0

Total # of neighbors = 5814
Ave neighs/atom = 90.843750
Neighbor list builds = 1
Dangerous builds = 0
Setting up Verlet run ...
  Unit style    : metal
  Current step  : 100
  Time step     : 0.001
Per MPI rank memory allocation (min/avg/max) = 3.089 | 3.089 | 3.089 Mbytes
Step Time Temp Volume Press 
     100          0.1    563.98865     1006.297    21020.955 
     110         0.11    564.33241     1006.297    20953.164 
     120         0.12    573.48264     1006.297    20666.404 
     130         0.13    591.19906     1006.297    20230.486 
     140         0.14    609.66516     1006.297    19787.546 
     150         0.15    621.47785     1006.297     19558.45 
     160         0.16    625.29487     1006.297    19661.535 
     170         0.17    627.56226     1006.297    19805.564 
     180         0.18    636.36099     1006.297    19790.898 
     190         0.19    653.23954     1006.297    19596.912 
     200          0.2    674.66284     1006.297    19336.051 
     210         0.21    696.02992     1006.297    19134.341 
     220         0.22    710.17717     1006.297    19143.912 
     230         0.23    709.60729     1006.297    19529.162 
     240         0.24    694.79031     1006.297    20219.053 
     250         0.25    677.90186     1006.297    20853.557 
     260         0.26    676.13876     1006.297    20997.115 
     270         0.27    698.99514     1006.297    20386.233 
     280         0.28    737.06732     1006.297    19229.306 
     290         0.29     767.6312     1006.297    18271.911 
     300          0.3     772.5455     1006.297    18101.978 
     310         0.31    750.11229     1006.297    18713.167 
     320         0.32    716.49036     1006.297      19701.8 
     330         0.33    693.53247     1006.297    20502.399 
     340         0.34    691.06141     1006.297     20709.73 
     350         0.35     703.6073     1006.297    20323.484 
     360         0.36    719.55537     1006.297    19683.057 
     370         0.37    728.71213     1006.297    19166.113 
     380         0.38    723.32501     1006.297    19197.141 
     390         0.39    699.62634     1006.297    19936.494 
     400          0.4     664.4592     1006.297    21186.258 
     410         0.41    636.96614     1006.297    22193.928 
     420         0.42    633.71384     1006.297    22416.587 
     430         0.43    653.72393     1006.297    21836.288 
     440         0.44    681.43528     1006.297    20928.895 
     450         0.45     699.2055     1006.297    20181.734 
     460         0.46    700.84642     1006.297    19850.592 
     470         0.47    697.92643     1006.297    19748.318 
     480         0.48    703.71849     1006.297     19475.16 
     490         0.49    718.44399     1006.297    18916.623 
     500          0.5    738.36358     1006.297    17960.064 
     510         0.51    759.75497     1006.297    16835.577 
     520         0.52    773.61904     1006.297    15931.033 
     530         0.53    768.44648     1006.297    15621.399 
     540         0.54    739.10376     1006.297    16077.409 
     550         0.55     691.6522     1006.297    17093.858 
     560         0.56    644.88785     1006.297    17986.021 
     570         0.57    625.60289     1006.297    18023.792 
     580         0.58    641.01371     1006.297    17076.714 
     590         0.59    664.57189     1006.297    15754.276 
     600          0.6     669.7868     1006.297    14915.374 
     610         0.61    653.86577     1006.297     14736.11 
     620         0.62    625.52345     1006.297    14996.569 
     630         0.63    596.06651     1006.297     15291.06 
     640         0.64    580.12319     1006.297    15174.217 
     650         0.65     586.0931     1006.297    14462.535 
     660         0.66    606.62725     1006.297    13313.504 
     670         0.67    629.93056     1006.297    12157.607 
     680         0.68    650.70757     1006.297    11272.163 
     690         0.69    666.61618     1006.297    10722.276 
     700          0.7    674.40457     1006.297    10630.536 
     710         0.71    671.00152     1006.297    11009.022 
     720         0.72    654.30466     1006.297    11926.792 
     730         0.73    624.34356     1006.297    13312.064 
     740         0.74    587.88503     1006.297    14852.939 
     750         0.75    558.47229     1006.297    16153.873 
     760         0.76    546.17929     1006.297     17005.02 
     770         0.77    549.15458     1006.297    17445.134 
     780         0.78    557.26581     1006.297    17824.987 
     790         0.79    561.23288     1006.297    18427.872 
     800          0.8    562.40316     1006.297    19195.248 
     810         0.81    571.40098     1006.297    19753.903 
     820         0.82    593.28025     1006.297    20014.009 
     830         0.83    619.93224     1006.297    20028.248 
     840         0.84    641.14127     1006.297    20010.921 
     850         0.85    659.58773     1006.297    19929.243 
     860         0.86     685.9686     1006.297    19554.918 
     870         0.87    720.60186     1006.297    18981.673 
     880         0.88    748.12238     1006.297    18696.039 
     890         0.89     753.5561     1006.297    19033.978 
     900          0.9    736.31594     1006.297    19976.841 
     910         0.91    709.17084     1006.297     21169.85 
     920         0.92    688.07759     1006.297    22197.497 
     930         0.93    679.63261     1006.297    22860.298 
     940         0.94    682.44031     1006.297    23132.316 
     950         0.95    695.13394     1006.297    22869.209 
     960         0.96    716.47415     1006.297    22125.305 
     970         0.97    743.18032     1006.297    21123.486 
     980         0.98    768.37094     1006.297    20190.575 
     990         0.99    779.33452     1006.297    19737.258 
    1000            1    765.59748     1006.297    20076.771 
Loop time of 17.8295 on 1 procs for 900 steps with 64 atoms

Performance: 4.361 ns/day, 5.503 hours/ns, 50.478 timesteps/s
100.0% CPU use with 1 MPI tasks x no OpenMP threads

MPI task timing breakdown:
Section |  min time  |  avg time  |  max time  |%varavg| %total
---------------------------------------------------------------
Pair    | 17.821     | 17.821     | 17.821     |   0.0 | 99.95
Neigh   | 0.0032131  | 0.0032131  | 0.0032131  |   0.0 |  0.02
Comm    | 0.0029165  | 0.0029165  | 0.0029165  |   0.0 |  0.02
Output  | 0.00038566 | 0.00038566 | 0.00038566 |   0.0 |  0.00
Modify  | 0.0015576  | 0.0015576  | 0.0015576  |   0.0 |  0.01
Other   |            | 0.0006885  |            |       |  0.00

Nlocal:        64.0000 ave          64 max          64 min
Histogram: 1 0 0 0 0 0 0 0 0 0
Nghost:        871.000 ave         871 max         871 min
Histogram: 1 0 0 0 0 0 0 0 0 0
Neighs:         0.00000 ave           0 max           0 min
Histogram: 1 0 0 0 0 0 0 0 0 0
FullNghs:      5844.00 ave        5844 max        5844 min
Histogram: 1 0 0 0 0 0 0 0 0 0

Total # of neighbors = 5844
Ave neighs/atom = 91.312500
Neighbor list builds = 16
Dangerous builds = 0
Setting up Verlet run ...
  Unit style    : metal
  Current step  : 1000
  Time step     : 0.001
Per MPI rank memory allocation (min/avg/max) = 3.089 | 3.089 | 3.089 Mbytes
Step Time Temp Volume Press 
    1000            1    765.59748     1006.297    20076.771 
    1100          1.1    695.32279     1006.297    19748.297 
    1200          1.2    644.89026     1006.297    15880.549 
    1300          1.3    668.92798     1006.297    13551.951 
    1400          1.4    738.90118     1006.297    20961.079 
    1500          1.5    744.38456     1006.297    23906.376 
    1600          1.6    687.57789     1006.297    21527.106 
    1700          1.7    639.07317     1006.297    18248.861 
    1800          1.8    578.59879     1006.297    21187.754 
    1900          1.9    688.55969     1006.297    19661.643 
    2000            2    704.95828     1006.297    23280.639 
    2100          2.1    755.22137     1006.297    21495.957 
    2200          2.2      716.118     1006.297    18257.746 
    2300          2.3    647.36867     1006.297    18736.583 
    2400          2.4    665.96705     1006.297    19811.812 
    2500          2.5    678.65514     1006.297    20393.676 
    2600          2.6    710.75236     1006.297     18188.96 
    2700          2.7       671.57     1006.297    16290.838 
    2800          2.8    556.93194     1006.297    15980.152 
    2900          2.9    599.96437     1006.297    14165.901 
    3000            3    637.81161     1006.297    19219.863 
    3100          3.1    816.64523     1006.297     19023.99 
    3200          3.2    682.32813     1006.297    20976.543 
    3300          3.3    695.45261     1006.297    17428.644 
    3400          3.4    619.07474     1006.297    17895.703 
    3500          3.5    632.84581     1006.297    12119.329 
    3600          3.6    564.60778     1006.297    14925.448 
    3700          3.7    700.22454     1006.297    17154.997 
    3800          3.8    627.56375     1006.297    22252.204 
    3900          3.9    758.85526     1006.297    18775.457 
    4000            4    595.94323     1006.297    20090.286 
    4100          4.1    568.87548     1006.297        18865 
    4200          4.2    688.21042     1006.297    16700.326 
    4300          4.3    733.15922     1006.297    22897.839 
    4400          4.4    774.94278     1006.297    22745.879 
    4500          4.5    770.57025     1006.297    17470.054 
    4600          4.6    663.18564     1006.297    14796.235 
    4700          4.7    671.37789     1006.297    14690.874 
    4800          4.8    702.75722     1006.297    17550.827 
    4900          4.9    841.52102     1006.297    20965.574 
    5000            5    828.73325     1006.297    24331.036 
    5100          5.1    672.33201     1006.297    26375.043 
    5200          5.2    624.16149     1006.297    25619.267 
    5300          5.3    741.76961     1006.297    20002.345 
    5400          5.4     644.7026     1006.297    19800.077 
    5500          5.5    650.49652     1006.297    14908.873 
    5600          5.6    530.31827     1006.297    17158.858 
    5700          5.7    769.59026     1006.297    13601.949 
    5800          5.8    717.02472     1006.297    22435.186 
    5900          5.9     679.4748     1006.297    23408.772 
    6000            6    751.20571     1006.297    17424.518 
    6100          6.1    605.16339     1006.297    16868.098 
    6200          6.2    704.66519     1006.297    13598.849 
    6300          6.3    703.42272     1006.297    18504.535 
    6400          6.4    887.39758     1006.297    18918.822 
    6500          6.5    691.94089     1006.297    27197.497 
    6600          6.6    727.18495     1006.297    25687.636 
    6700          6.7    651.43648     1006.297    21771.938 
    6800          6.8    686.39507     1006.297    17011.349 
    6900          6.9    649.27283     1006.297    16070.046 
    7000            7    659.98417     1006.297    14801.908 
    7100          7.1    752.33387     1006.297    20846.228 
    7200          7.2    776.01538     1006.297    24379.944 
    7300          7.3    728.07165     1006.297    24121.935 
    7400          7.4    676.98001     1006.297    19846.025 
    7500          7.5     640.5692     1006.297    18031.598 
    7600          7.6    702.34506     1006.297    13514.878 
    7700          7.7    632.92816     1006.297    15674.804 
    7800          7.8    689.58173     1006.297    20315.805 
    7900          7.9    631.88338     1006.297     27621.83 
    8000            8    745.11652     1006.297    24623.545 
    8100          8.1    653.74012     1006.297    18779.712 
    8200          8.2    685.22459     1006.297    15365.972 
    8300          8.3    613.81042     1006.297    19659.988 
    8400          8.4    787.64236     1006.297    17091.926 
    8500          8.5    830.81093     1006.297     17841.05 
    8600          8.6    577.68602     1006.297    14734.043 
    8700          8.7    568.33082     1006.297    15329.842 
    8800          8.8     709.0179     1006.297    16343.541 
    8900          8.9    650.65562     1006.297    23060.505 
    9000            9    824.04181     1006.297    19842.492 
    9100          9.1    674.26356     1006.297    21067.204 
    9200          9.2    668.85643     1006.297    18203.338 
    9300          9.3    707.05377     1006.297    17265.237 
    9400          9.4    639.79957     1006.297    19326.499 
    9500          9.5    716.35311     1006.297    20698.473 
    9600          9.6    867.09015     1006.297    27409.624 
    9700          9.7    709.08135     1006.297    30098.021 
    9800          9.8    723.25802     1006.297    24312.705 
    9900          9.9    800.16527     1006.297      16459.3 
   10000           10    678.54226     1006.297    19786.592 
Loop time of 190.324 on 1 procs for 9000 steps with 64 atoms

Performance: 4.086 ns/day, 5.874 hours/ns, 47.288 timesteps/s
100.0% CPU use with 1 MPI tasks x no OpenMP threads

MPI task timing breakdown:
Section |  min time  |  avg time  |  max time  |%varavg| %total
---------------------------------------------------------------
Pair    | 190.23     | 190.23     | 190.23     |   0.0 | 99.95
Neigh   | 0.033977   | 0.033977   | 0.033977   |   0.0 |  0.02
Comm    | 0.031894   | 0.031894   | 0.031894   |   0.0 |  0.02
Output  | 0.00051151 | 0.00051151 | 0.00051151 |   0.0 |  0.00
Modify  | 0.015954   | 0.015954   | 0.015954   |   0.0 |  0.01
Other   |            | 0.006994   |            |       |  0.00

Nlocal:        64.0000 ave          64 max          64 min
Histogram: 1 0 0 0 0 0 0 0 0 0
Nghost:        886.000 ave         886 max         886 min
Histogram: 1 0 0 0 0 0 0 0 0 0
Neighs:         0.00000 ave           0 max           0 min
Histogram: 1 0 0 0 0 0 0 0 0 0
FullNghs:      5808.00 ave        5808 max        5808 min
Histogram: 1 0 0 0 0 0 0 0 0 0

Total # of neighbors = 5808
Ave neighs/atom = 90.750000
Neighbor list builds = 162
Dangerous builds = 0
System init for write_data ...
Total wall time: 0:03:30
