ITEM: TIMESTEP
10000
ITEM: NUMBER OF ATOMS
64
ITEM: BOX BOUNDS xy xz yz pp pp pp
0.0000000000000000e+00 1.0560000000000285e+01 0.0000000000000000e+00
0.0000000000000000e+00 9.1452282639639186e+00 0.0000000000000000e+00
0.0000000000000000e+00 1.0420000000000000e+01 0.0000000000000000e+00
ITEM: ATOMS id type x y z
1 1 1.27707 5.07973 4.23816
2 1 1.37069 5.51302 9.36345
3 1 10.5008 7.51247 3.75441
4 1 10.3842 7.76972 8.58297
5 1 6.44117 0.794586 3.45379
6 1 6.80395 0.607187 9.26422
7 1 5.40162 3.22612 3.9506
8 1 5.22166 3.09375 8.93358
9 1 1.54511 0.615616 3.83091
10 1 1.14674 0.919394 9.12729
11 1 10.4621 2.85255 3.89791
12 1 0.0489657 3.21832 9.6642
13 1 3.8742 1.05634 3.46314
14 1 3.94865 0.753544 9.15641
15 1 2.66602 3.0618 4.39989
16 1 2.52577 3.01966 9.34813
17 1 6.65164 5.57551 3.87691
18 1 6.42738 5.21792 8.42403
19 1 5.23683 7.53334 3.74994
20 1 5.26904 7.67273 8.73698
21 1 9.38012 5.17369 4.50995
22 1 9.33214 5.42231 9.36819
23 1 7.81755 7.53334 4.07117
24 1 7.87088 7.5651 8.81333
25 1 4.07551 5.20932 3.59076
26 1 4.02005 5.39602 9.48428
27 1 2.65367 7.67569 4.01163
28 1 2.51523 7.81847 8.84736
29 1 8.89692 0.59325 3.67392
30 1 9.26084 0.805585 9.00313
31 1 8.01061 3.00852 3.61402
32 1 7.93846 3.04387 9.48698
33 1 5.23336 1.54775 1.12571
34 1 5.22959 1.4171 6.60354
35 1 4.08852 3.78096 1.20846
36 1 3.81569 3.67452 6.86784
37 1 2.63314 5.93859 1.30966
38 1 2.99847 6.20149 6.54127
39 1 1.23915 8.30748 1.40361
40 1 1.43342 8.54042 6.2349
41 1 10.4439 1.09923 1.90159
42 1 10.3951 1.81931 6.45085
43 1 2.42329 1.26875 1.24811
44 1 2.50835 1.50014 6.82388
45 1 1.55005 3.64024 1.78952
46 1 1.17467 3.86871 6.51961
47 1 10.5136 6.06569 1.6254
48 1 0.430686 6.14729 6.70671
49 1 9.49286 3.6237 1.49756
50 1 9.02443 4.00939 6.88387
51 1 8.01121 6.0167 1.45523
52 1 8.02685 6.15934 6.76951
53 1 6.39675 8.39085 1.08684
54 1 6.78307 8.33433 6.48167
55 1 8.97806 8.35148 1.41486
56 1 9.48509 8.53039 6.04707
57 1 7.82249 1.71525 1.36202
58 1 7.82543 1.56901 6.05473
59 1 6.67214 3.95894 1.65465
60 1 6.61615 3.77804 5.8401
61 1 5.43743 6.16059 1.18734
62 1 5.25928 6.07863 6.2363
63 1 3.84771 8.38005 1.47677
64 1 4.2746 8.4345 5.93921
