LAMMPS (29 Sep 2021 - Update 1)
Reading data file ...
  triclinic box = (0.0000000 0.0000000 0.0000000) to (10.520000 9.1105872 10.260000) with tilt (0.0000000 0.0000000 0.0000000)
  1 by 1 by 1 MPI processor grid
  reading atoms ...
  64 atoms
  read_data CPU = 0.001 seconds
Neighbor list info ...
  update every 1 steps, delay 0 steps, check yes
  max neighbors/atom: 2000, page size: 100000
  master list distance cutoff = 7
  ghost atom cutoff = 7
  binsize = 3.5, bins = 4 3 3
  1 neighbor lists, perpetual/occasional/extra = 1 0 0
  (1) pair mlip, perpetual
      attributes: full, newton on
      pair build: full/bin/atomonly
      stencil: full/bin/3d
      bin: standard
Setting up Verlet run ...
  Unit style    : metal
  Current step  : 0
  Time step     : 0.001
Per MPI rank memory allocation (min/avg/max) = 3.089 | 3.089 | 3.089 Mbytes
Step Time Temp Volume Press 
       0            0         1380    983.35306    5014.7811 
       1        0.001     1379.064    983.35306    5046.2586 
       2        0.002     1376.266    983.35306    5140.3531 
       3        0.003    1371.6288    983.35306    5296.3063 
       4        0.004    1365.1837    983.35306    5508.9413 
       5        0.005    1356.9689    983.35306     5777.571 
       6        0.006    1347.0295    983.35306    6096.7778 
       7        0.007     1335.417    983.35306    6467.3363 
       8        0.008    1322.1879    983.35306    6889.2964 
       9        0.009    1307.4038    983.35306    7362.5946 
      10         0.01    1291.1317    983.35306    7884.8442 
Loop time of 0.210687 on 1 procs for 10 steps with 64 atoms

Performance: 4.101 ns/day, 5.852 hours/ns, 47.464 timesteps/s
97.8% CPU use with 1 MPI tasks x no OpenMP threads

MPI task timing breakdown:
Section |  min time  |  avg time  |  max time  |%varavg| %total
---------------------------------------------------------------
Pair    | 0.21057    | 0.21057    | 0.21057    |   0.0 | 99.95
Neigh   | 0          | 0          | 0          |   0.0 |  0.00
Comm    | 3.3987e-05 | 3.3987e-05 | 3.3987e-05 |   0.0 |  0.02
Output  | 4.254e-05  | 4.254e-05  | 4.254e-05  |   0.0 |  0.02
Modify  | 2.5668e-05 | 2.5668e-05 | 2.5668e-05 |   0.0 |  0.01
Other   |            | 1.177e-05  |            |       |  0.01

Nlocal:        64.0000 ave          64 max          64 min
Histogram: 1 0 0 0 0 0 0 0 0 0
Nghost:        886.000 ave         886 max         886 min
Histogram: 1 0 0 0 0 0 0 0 0 0
Neighs:         0.00000 ave           0 max           0 min
Histogram: 1 0 0 0 0 0 0 0 0 0
FullNghs:      6272.00 ave        6272 max        6272 min
Histogram: 1 0 0 0 0 0 0 0 0 0

Total # of neighbors = 6272
Ave neighs/atom = 98.000000
Neighbor list builds = 0
Dangerous builds = 0
Setting up Verlet run ...
  Unit style    : metal
  Current step  : 10
  Time step     : 0.001
Per MPI rank memory allocation (min/avg/max) = 3.089 | 3.089 | 3.089 Mbytes
Step Time Temp Volume Press 
      10         0.01    1291.1317    983.35306    7884.8442 
      11        0.011    1273.4438    983.35306    8455.6028 
      12        0.012    1254.4172    983.35306    9073.1771 
      13        0.013     1234.134    983.35306    9736.2588 
      14        0.014    1212.6806    983.35306    10442.253 
      15        0.015     1190.148    983.35306    11189.243 
      16        0.016     1166.631    983.35306    11974.374 
      17        0.017    1142.2271    983.35306    12791.396 
      18        0.018     1117.037    983.35306    13638.461 
      19        0.019    1091.1633    983.35306    14505.287 
      20         0.02     1064.711    983.35306    15394.556 
      21        0.021    1037.7883    983.35306     16301.33 
      22        0.022    1010.5048    983.35306    17223.078 
      23        0.023    982.97075    983.35306    18153.321 
      24        0.024    955.29575    983.35306    19087.189 
      25        0.025    927.58904    983.35306     20021.31 
      26        0.026    899.95876    983.35306    20951.657 
      27        0.027     872.5118    983.35306    21877.607 
      28        0.028    845.35293    983.35306    22794.979 
      29        0.029    818.58367    983.35306    23701.674 
      30         0.03     792.3016    983.35306    24593.622 
      31        0.031    766.59956    983.35306    25467.598 
      32        0.032    741.56514    983.35306    26321.488 
      33        0.033     717.2804    983.35306    27154.765 
      34        0.034    693.82112    983.35306    27964.131 
      35        0.035    671.25608    983.35306    28747.265 
      36        0.036    649.64667    983.35306    29502.146 
      37        0.037    629.04641    983.35306    30225.272 
      38        0.038    609.50108    983.35306    30917.202 
      39        0.039    591.04871    983.35306    31577.154 
      40         0.04    573.71927    983.35306    32203.479 
      41        0.041    557.53461    983.35306    32794.012 
      42        0.042    542.50833    983.35306    33344.987 
      43        0.043    528.64641    983.35306    33859.457 
      44        0.044    515.94788    983.35306    34336.664 
      45        0.045    504.40478    983.35306    34777.031 
      46        0.046    494.00259    983.35306    35179.918 
      47        0.047     484.7207    983.35306     35546.43 
      48        0.048    476.53298    983.35306    35877.006 
      49        0.049    469.40814    983.35306    36171.032 
      50         0.05    463.31031    983.35306    36429.732 
      51        0.051    458.19971    983.35306    36655.628 
      52        0.052    454.03313    983.35306    36849.789 
      53        0.053    450.76469    983.35306    37012.669 
      54        0.054    448.34637    983.35306    37145.496 
      55        0.055    446.72841    983.35306    37249.586 
      56        0.056    445.85983    983.35306    37326.782 
      57        0.057    445.68889    983.35306    37378.042 
      58        0.058    446.16351    983.35306    37405.885 
      59        0.059    447.23147    983.35306    37411.995 
      60         0.06    448.84084    983.35306     37397.61 
      61        0.061     450.9401    983.35306    37362.214 
      62        0.062    453.47868    983.35306    37310.077 
      63        0.063    456.40738    983.35306    37243.005 
      64        0.064     459.6783    983.35306    37162.589 
      65        0.065    463.24478    983.35306    37067.891 
      66        0.066    467.06145    983.35306    36960.203 
      67        0.067    471.08454    983.35306    36842.336 
      68        0.068    475.27233    983.35306    36717.378 
      69        0.069    479.58528    983.35306    36586.074 
      70         0.07    483.98576    983.35306    36450.267 
      71        0.071    488.43778    983.35306    36309.472 
      72        0.072     492.9072    983.35306    36165.961 
      73        0.073    497.36207    983.35306     36022.25 
      74        0.074    501.77247    983.35306    35879.305 
      75        0.075    506.11027    983.35306    35737.723 
      76        0.076    510.34929    983.35306     35599.55 
      77        0.077    514.46562    983.35306    35465.174 
      78        0.078    518.43743    983.35306    35336.032 
      79        0.079    522.24471    983.35306     35212.18 
      80         0.08     525.8693    983.35306    35094.728 
      81        0.081    529.29511    983.35306    34984.861 
      82        0.082    532.50799    983.35306    34881.161 
      83        0.083    535.49565    983.35306    34785.791 
      84        0.084    538.24762    983.35306    34699.244 
      85        0.085     540.7554    983.35306    34621.948 
      86        0.086    543.01254    983.35306    34553.915 
      87        0.087    545.01433    983.35306    34495.004 
      88        0.088    546.75738    983.35306    34444.917 
      89        0.089    548.23978    983.35306    34403.589 
      90         0.09    549.46164    983.35306    34371.516 
      91        0.091    550.42481    983.35306    34348.764 
      92        0.092    551.13274    983.35306    34334.722 
      93        0.093    551.59006    983.35306    34327.402 
      94        0.094    551.80273    983.35306    34328.063 
      95        0.095    551.77808    983.35306    34336.935 
      96        0.096    551.52458    983.35306      34351.5 
      97        0.097    551.05191    983.35306    34372.935 
      98        0.098    550.37049    983.35306    34400.429 
      99        0.099    549.49143    983.35306    34434.761 
     100          0.1    548.42666    983.35306    34475.584 
Loop time of 1.86151 on 1 procs for 90 steps with 64 atoms

Performance: 4.177 ns/day, 5.745 hours/ns, 48.348 timesteps/s
100.0% CPU use with 1 MPI tasks x no OpenMP threads

MPI task timing breakdown:
Section |  min time  |  avg time  |  max time  |%varavg| %total
---------------------------------------------------------------
Pair    | 1.8604     | 1.8604     | 1.8604     |   0.0 | 99.94
Neigh   | 0.00020785 | 0.00020785 | 0.00020785 |   0.0 |  0.01
Comm    | 0.00030515 | 0.00030515 | 0.00030515 |   0.0 |  0.02
Output  | 0.00034813 | 0.00034813 | 0.00034813 |   0.0 |  0.02
Modify  | 0.00017395 | 0.00017395 | 0.00017395 |   0.0 |  0.01
Other   |            | 7.814e-05  |            |       |  0.00

Nlocal:        64.0000 ave          64 max          64 min
Histogram: 1 0 0 0 0 0 0 0 0 0
Nghost:        886.000 ave         886 max         886 min
Histogram: 1 0 0 0 0 0 0 0 0 0
Neighs:         0.00000 ave           0 max           0 min
Histogram: 1 0 0 0 0 0 0 0 0 0
FullNghs:      6054.00 ave        6054 max        6054 min
Histogram: 1 0 0 0 0 0 0 0 0 0

Total # of neighbors = 6054
Ave neighs/atom = 94.593750
Neighbor list builds = 1
Dangerous builds = 0
Setting up Verlet run ...
  Unit style    : metal
  Current step  : 100
  Time step     : 0.001
Per MPI rank memory allocation (min/avg/max) = 3.089 | 3.089 | 3.089 Mbytes
Step Time Temp Volume Press 
     100          0.1    548.42666    983.35306    34475.584 
     110         0.11    530.63889    983.35306    35166.359 
     120         0.12    510.45008    983.35306     36010.53 
     130         0.13    502.14283    983.35306    36474.803 
     140         0.14    515.43707    983.35306    36233.917 
     150         0.15    550.37987    983.35306    35342.404 
     160         0.16    596.33963    983.35306    34171.109 
     170         0.17    639.00046    983.35306    33195.725 
     180         0.18    666.14762    983.35306    32781.649 
     190         0.19    671.11073    983.35306    33126.386 
     200          0.2    660.72075    983.35306    33957.768 
     210         0.21    653.53572    983.35306    34678.812 
     220         0.22    661.29189    983.35306    34935.779 
     230         0.23    678.91572    983.35306    34906.803 
     240         0.24    691.82702    983.35306    34992.993 
     250         0.25    688.06973    983.35306    35527.314 
     260         0.26    669.96144    983.35306    36416.875 
     270         0.27    658.38888    983.35306    37018.725 
     280         0.28    674.89477    983.35306    36736.009 
     290         0.29     717.7727    983.35306    35654.098 
     300          0.3    770.92712    983.35306    34102.214 
     310         0.31    823.48396    983.35306    32403.868 
     320         0.32    864.14606    983.35306    30884.476 
     330         0.33    878.43982    983.35306    30004.355 
     340         0.34    863.25099    983.35306    29988.533 
     350         0.35    832.12072    983.35306    30509.396 
     360         0.36    803.40126    983.35306    31117.643 
     370         0.37    781.39243    983.35306    31544.942 
     380         0.38    754.54558    983.35306    32013.052 
     390         0.39    715.97771    983.35306    32771.676 
     400          0.4    673.49379    983.35306    33764.772 
     410         0.41     639.2433    983.35306    34538.012 
     420         0.42    618.27142    983.35306    34873.509 
     430         0.43    612.39384    983.35306    34703.086 
     440         0.44     623.0901    983.35306     34049.49 
     450         0.45    646.71521    983.35306    33086.852 
     460         0.46    671.69472    983.35306    32080.293 
     470         0.47    681.30019    983.35306    31476.584 
     480         0.48    667.02782    983.35306    31517.291 
     490         0.49    639.69413    983.35306    32017.734 
     500          0.5    622.24414    983.35306    32210.175 
     510         0.51    631.59042    983.35306     31660.04 
     520         0.52    664.43702    983.35306    30439.423 
     530         0.53     700.2962    983.35306    29059.658 
     540         0.54    723.81138    983.35306    28017.217 
     550         0.55    735.44505    983.35306    27509.426 
     560         0.56    734.60822    983.35306    27705.629 
     570         0.57    712.61322    983.35306    28724.887 
     580         0.58    669.55724    983.35306    30356.866 
     590         0.59    623.68717    983.35306    32060.448 
     600          0.6    596.31916    983.35306    33230.097 
     610         0.61    590.80998    983.35306    33696.942 
     620         0.62    594.51842    983.35306    33699.762 
     630         0.63    602.91838    983.35306    33459.444 
     640         0.64    630.81963    983.35306    32675.248 
     650         0.65    686.94417    983.35306    31266.552 
     660         0.66    748.43312    983.35306    29852.763 
     670         0.67    779.29725    983.35306    29424.633 
     680         0.68    762.65913    983.35306    30450.744 
     690         0.69    713.81158    983.35306    32401.227 
     700          0.7    671.19715    983.35306    34194.713 
     710         0.71    667.72708    983.35306     34842.28 
     720         0.72    706.55938    983.35306    34094.709 
     730         0.73    767.87149    983.35306    32675.029 
     740         0.74    830.55737    983.35306    31487.636 
     750         0.75    878.98869    983.35306    31133.453 
     760         0.76    898.36663    983.35306    31960.981 
     770         0.77    876.08996    983.35306    34087.719 
     780         0.78    816.36078    983.35306    37134.929 
     790         0.79    753.71068    983.35306    39978.776 
     800          0.8    732.96678    983.35306    41382.254 
     810         0.81    767.76664    983.35306    40976.484 
     820         0.82     830.0781    983.35306    39558.776 
     830         0.83    873.93635    983.35306    38548.319 
     840         0.84    863.63472    983.35306    39144.181 
     850         0.85    800.62337    983.35306    41070.486 
     860         0.86    736.45055    983.35306    42831.871 
     870         0.87    722.62362    983.35306     43123.25 
     880         0.88    755.24044    983.35306    41794.472 
     890         0.89    801.75853    983.35306    39802.917 
     900          0.9    834.89307    983.35306    38127.624 
     910         0.91     833.5227    983.35306    37548.539 
     920         0.92    788.28232    983.35306    38318.237 
     930         0.93    718.98843    983.35306    39833.487 
     940         0.94     666.1735    983.35306    41001.467 
     950         0.95    651.85242    983.35306    41162.423 
     960         0.96    668.51974    983.35306    40451.708 
     970         0.97    696.94707    983.35306    39272.071 
     980         0.98    718.96067    983.35306    38204.571 
     990         0.99    722.97684    983.35306    37811.974 
    1000            1    708.79109    983.35306    38195.762 
Loop time of 18.381 on 1 procs for 900 steps with 64 atoms

Performance: 4.230 ns/day, 5.673 hours/ns, 48.964 timesteps/s
100.0% CPU use with 1 MPI tasks x no OpenMP threads

MPI task timing breakdown:
Section |  min time  |  avg time  |  max time  |%varavg| %total
---------------------------------------------------------------
Pair    | 18.372     | 18.372     | 18.372     |   0.0 | 99.95
Neigh   | 0.0034551  | 0.0034551  | 0.0034551  |   0.0 |  0.02
Comm    | 0.0030453  | 0.0030453  | 0.0030453  |   0.0 |  0.02
Output  | 0.00040752 | 0.00040752 | 0.00040752 |   0.0 |  0.00
Modify  | 0.0015427  | 0.0015427  | 0.0015427  |   0.0 |  0.01
Other   |            | 0.0006775  |            |       |  0.00

Nlocal:        64.0000 ave          64 max          64 min
Histogram: 1 0 0 0 0 0 0 0 0 0
Nghost:        867.000 ave         867 max         867 min
Histogram: 1 0 0 0 0 0 0 0 0 0
Neighs:         0.00000 ave           0 max           0 min
Histogram: 1 0 0 0 0 0 0 0 0 0
FullNghs:      6014.00 ave        6014 max        6014 min
Histogram: 1 0 0 0 0 0 0 0 0 0

Total # of neighbors = 6014
Ave neighs/atom = 93.968750
Neighbor list builds = 17
Dangerous builds = 0
Setting up Verlet run ...
  Unit style    : metal
  Current step  : 1000
  Time step     : 0.001
Per MPI rank memory allocation (min/avg/max) = 3.089 | 3.089 | 3.089 Mbytes
Step Time Temp Volume Press 
    1000            1    708.79109    983.35306    38195.762 
    1100          1.1    774.86467    983.35306    34409.343 
    1200          1.2    644.89358    983.35306      34542.5 
    1300          1.3    678.35944    983.35306    30359.517 
    1400          1.4    586.90244    983.35306    32052.159 
    1500          1.5    683.41888    983.35306    33572.661 
    1600          1.6    816.03734    983.35306    36580.356 
    1700          1.7    687.15969    983.35306    34812.984 
    1800          1.8    636.24542    983.35306    32386.314 
    1900          1.9    658.60127    983.35306    31724.382 
    2000            2    674.97031    983.35306    31643.779 
    2100          2.1    795.27532    983.35306     25893.61 
    2200          2.2    681.49871    983.35306    32986.919 
    2300          2.3    646.81843    983.35306    38668.616 
    2400          2.4    823.57348    983.35306     34981.47 
    2500          2.5    691.51237    983.35306    38499.518 
    2600          2.6    683.73073    983.35306    30084.701 
    2700          2.7    631.33038    983.35306    30693.663 
    2800          2.8    536.92867    983.35306    35703.913 
    2900          2.9    780.20201    983.35306    31297.323 
    3000            3    690.07835    983.35306    38850.862 
    3100          3.1    823.89663    983.35306    30265.941 
    3200          3.2    696.86457    983.35306    30816.719 
    3300          3.3     607.8217    983.35306    32728.624 
    3400          3.4    726.62387    983.35306    30982.668 
    3500          3.5     743.3996    983.35306    32495.563 
    3600          3.6    735.59897    983.35306    33825.243 
    3700          3.7    811.18752    983.35306    29849.643 
    3800          3.8    599.49343    983.35306    35182.568 
    3900          3.9    659.49938    983.35306      34568.8 
    4000            4    710.86062    983.35306    32820.864 
    4100          4.1    686.74808    983.35306     31007.44 
    4200          4.2    622.75928    983.35306    29206.538 
    4300          4.3    634.87748    983.35306    26429.328 
    4400          4.4    631.28857    983.35306    28295.705 
    4500          4.5    784.68433    983.35306    31169.807 
    4600          4.6    739.41414    983.35306    31436.057 
    4700          4.7    639.56601    983.35306    33213.237 
    4800          4.8    714.73533    983.35306    33224.775 
    4900          4.9    769.25377    983.35306    39067.376 
    5000            5    850.91755    983.35306    37928.779 
    5100          5.1    710.84312    983.35306    34034.788 
    5200          5.2    688.70098    983.35306    32286.844 
    5300          5.3    653.14801    983.35306    30447.251 
    5400          5.4    675.31163    983.35306    28902.532 
    5500          5.5    725.58416    983.35306    34777.179 
    5600          5.6    834.69043    983.35306    35826.593 
    5700          5.7    671.01057    983.35306    36473.013 
    5800          5.8     763.6184    983.35306    28982.252 
    5900          5.9    634.10605    983.35306    32647.704 
    6000            6    622.60511    983.35306    33519.327 
    6100          6.1    772.64038    983.35306    30232.656 
    6200          6.2    807.68283    983.35306     42433.91 
    6300          6.3     823.7564    983.35306     40728.15 
    6400          6.4    719.96163    983.35306    41302.932 
    6500          6.5    747.71512    983.35306    34026.817 
    6600          6.6    639.34754    983.35306    31596.164 
    6700          6.7    620.18464    983.35306    33060.025 
    6800          6.8    704.78543    983.35306    34154.777 
    6900          6.9    774.88945    983.35306    31003.554 
    7000            7    738.29635    983.35306    30744.042 
    7100          7.1    601.32316    983.35306     34518.07 
    7200          7.2    618.11058    983.35306    35596.303 
    7300          7.3    822.24192    983.35306    35441.281 
    7400          7.4    711.83953    983.35306    40930.175 
    7500          7.5    803.18696    983.35306     30585.25 
    7600          7.6    584.56204    983.35306    33508.655 
    7700          7.7    760.27493    983.35306    30615.741 
    7800          7.8    644.92109    983.35306    36374.436 
    7900          7.9     723.0995    983.35306    31155.039 
    8000            8    713.02793    983.35306    24071.946 
    8100          8.1    561.28088    983.35306    28410.372 
    8200          8.2    707.72122    983.35306    27946.988 
    8300          8.3    652.06711    983.35306    31509.248 
    8400          8.4    708.42128    983.35306    32670.277 
    8500          8.5    728.94888    983.35306    33291.805 
    8600          8.6    812.41733    983.35306    34714.903 
    8700          8.7    684.30244    983.35306    44502.545 
    8800          8.8    788.11785    983.35306     40751.73 
    8900          8.9    677.59433    983.35306    32970.684 
    9000            9    644.45193    983.35306    31816.964 
    9100          9.1    697.53513    983.35306    31687.782 
    9200          9.2    811.91786    983.35306    31995.349 
    9300          9.3    710.41446    983.35306    35488.313 
    9400          9.4    607.35398    983.35306    32319.633 
    9500          9.5    683.91035    983.35306    26792.846 
    9600          9.6    602.94324    983.35306        30381 
    9700          9.7    694.48903    983.35306    29684.912 
    9800          9.8    603.38736    983.35306    34734.344 
    9900          9.9    659.07676    983.35306     39857.15 
   10000           10    831.87916    983.35306    35723.643 
Loop time of 195.015 on 1 procs for 9000 steps with 64 atoms

Performance: 3.987 ns/day, 6.019 hours/ns, 46.150 timesteps/s
100.0% CPU use with 1 MPI tasks x no OpenMP threads

MPI task timing breakdown:
Section |  min time  |  avg time  |  max time  |%varavg| %total
---------------------------------------------------------------
Pair    | 194.92     | 194.92     | 194.92     |   0.0 | 99.95
Neigh   | 0.034846   | 0.034846   | 0.034846   |   0.0 |  0.02
Comm    | 0.032839   | 0.032839   | 0.032839   |   0.0 |  0.02
Output  | 0.00051035 | 0.00051035 | 0.00051035 |   0.0 |  0.00
Modify  | 0.015532   | 0.015532   | 0.015532   |   0.0 |  0.01
Other   |            | 0.007033   |            |       |  0.00

Nlocal:        64.0000 ave          64 max          64 min
Histogram: 1 0 0 0 0 0 0 0 0 0
Nghost:        886.000 ave         886 max         886 min
Histogram: 1 0 0 0 0 0 0 0 0 0
Neighs:         0.00000 ave           0 max           0 min
Histogram: 1 0 0 0 0 0 0 0 0 0
FullNghs:      6044.00 ave        6044 max        6044 min
Histogram: 1 0 0 0 0 0 0 0 0 0

Total # of neighbors = 6044
Ave neighs/atom = 94.437500
Neighbor list builds = 164
Dangerous builds = 0
System init for write_data ...
Total wall time: 0:03:35
