ITEM: TIMESTEP
10000
ITEM: NUMBER OF ATOMS
64
ITEM: BOX BOUNDS xy xz yz pp pp pp
0.0000000000000000e+00 1.0519999999999747e+01 0.0000000000000000e+00
0.0000000000000000e+00 9.1105872478120737e+00 0.0000000000000000e+00
0.0000000000000000e+00 1.0260000000000000e+01 0.0000000000000000e+00
ITEM: ATOMS id type x y z
1 1 1.31064 5.15127 4.02358
2 1 1.15435 5.37159 8.97125
3 1 0.0289519 7.78791 3.51695
4 1 0.0778089 7.82884 8.75318
5 1 6.27264 0.552226 4.1791
6 1 6.55302 0.970323 9.48144
7 1 5.43638 2.89351 3.70197
8 1 5.23069 3.11992 9.06419
9 1 1.24508 0.775637 3.77017
10 1 1.52405 0.902232 9.0822
11 1 0.00137976 3.07288 3.32614
12 1 10.4759 3.08782 8.88844
13 1 3.6362 0.657779 3.94703
14 1 3.97444 0.702474 8.78786
15 1 2.817 2.85509 3.88027
16 1 2.43828 3.11179 9.35646
17 1 6.43028 5.08005 3.57274
18 1 6.8233 5.35962 8.58723
19 1 5.13099 7.34962 3.98961
20 1 5.32148 7.45765 9.05445
21 1 9.01747 5.14183 3.84443
22 1 9.26222 5.42009 9.00175
23 1 7.91308 7.3188 3.98648
24 1 7.94781 7.8689 8.94006
25 1 4.01543 5.10775 3.46537
26 1 4.15049 5.36885 9.12078
27 1 2.5345 7.37884 3.79985
28 1 2.44303 7.66678 9.0617
29 1 9.13576 0.899736 3.98968
30 1 9.03242 0.846955 8.68648
31 1 8.02492 2.95593 4.08929
32 1 7.98809 3.10269 8.93578
33 1 5.25411 1.58639 1.0917
34 1 5.45021 1.5851 6.29601
35 1 4.30584 3.68813 1.202
36 1 4.07374 3.81249 6.54527
37 1 2.65866 6.28477 0.992084
38 1 2.56378 5.97533 6.3969
39 1 0.985505 8.56865 1.20564
40 1 1.47823 8.18493 6.25428
41 1 10.3282 1.73361 0.805794
42 1 0.292822 1.49318 6.89686
43 1 2.64442 1.68029 1.41623
44 1 2.67271 1.66284 6.68062
45 1 1.01063 3.84829 1.14133
46 1 1.3778 3.91516 6.40242
47 1 0.080188 6.18276 1.35848
48 1 10.5231 6.02542 6.10595
49 1 9.0116 3.88344 1.55147
50 1 9.35252 3.70336 6.33829
51 1 7.892 5.89064 1.23544
52 1 8.01223 6.10427 6.26703
53 1 6.56905 8.21244 1.69438
54 1 6.59571 8.24542 6.28509
55 1 8.99887 8.26065 1.33602
56 1 9.29087 8.31962 6.46653
57 1 7.7864 1.32939 1.8438
58 1 8.04115 1.52826 6.3944
59 1 6.66535 3.63396 1.1456
60 1 6.85028 3.86432 6.63941
61 1 5.09298 6.17365 1.1998
62 1 5.3208 6.14648 6.32907
63 1 3.53008 8.53318 1.34471
64 1 4.06207 8.31699 6.60148
