 # Something
 64 atoms
 1 atom types
 0   10.840000000000591      xlo xhi 
 0   9.3877153770238255      ylo yhi 
 0   10.320000000000000      zlo zhi 
   0.0000000000000000        0.0000000000000000        0.0000000000000000      xy xz yz
 Atoms
 
           1           1   1.3550000000000739        5.4761673032638987        3.8700000000000001     
           2           1   1.3550000000000739        5.4761673032638987        9.0300000000000011     
           3           1   0.0000000000000000        7.8230961475198546        3.8700000000000001     
           4           1   0.0000000000000000        7.8230961475198546        9.0300000000000011     
           5           1   6.7750000000003698       0.78230961475198546        3.8700000000000001     
           6           1   6.7750000000003698       0.78230961475198546        9.0300000000000011     
           7           1   5.4200000000002957        3.1292384590079418        3.8700000000000001     
           8           1   5.4200000000002957        3.1292384590079418        9.0300000000000011     
           9           1   1.3550000000000739       0.78230961475198546        3.8700000000000001     
          10           1   1.3550000000000739       0.78230961475198546        9.0300000000000011     
          11           1   0.0000000000000000        3.1292384590079418        3.8700000000000001     
          12           1   0.0000000000000000        3.1292384590079418        9.0300000000000011     
          13           1   4.0650000000002215       0.78230961475198546        3.8700000000000001     
          14           1   4.0650000000002215       0.78230961475198546        9.0300000000000011     
          15           1   2.7100000000001478        3.1292384590079418        3.8700000000000001     
          16           1   2.7100000000001478        3.1292384590079418        9.0300000000000011     
          17           1   6.7750000000003698        5.4761673032638987        3.8700000000000001     
          18           1   6.7750000000003698        5.4761673032638987        9.0300000000000011     
          19           1   5.4200000000002957        7.8230961475198546        3.8700000000000001     
          20           1   5.4200000000002957        7.8230961475198546        9.0300000000000011     
          21           1   9.4850000000005181        5.4761673032638987        3.8700000000000001     
          22           1   9.4850000000005181        5.4761673032638987        9.0300000000000011     
          23           1   8.1300000000004431        7.8230961475198546        3.8700000000000001     
          24           1   8.1300000000004431        7.8230961475198546        9.0300000000000011     
          25           1   4.0650000000002215        5.4761673032638987        3.8700000000000001     
          26           1   4.0650000000002215        5.4761673032638987        9.0300000000000011     
          27           1   2.7100000000001478        7.8230961475198546        3.8700000000000001     
          28           1   2.7100000000001478        7.8230961475198546        9.0300000000000011     
          29           1   9.4850000000005181       0.78230961475198546        3.8700000000000001     
          30           1   9.4850000000005181       0.78230961475198546        9.0300000000000011     
          31           1   8.1300000000004431        3.1292384590079418        3.8700000000000001     
          32           1   8.1300000000004431        3.1292384590079418        9.0300000000000011     
          33           1   5.4200000000002957        1.5646192295039714        1.2900000000000000     
          34           1   5.4200000000002957        1.5646192295039714        6.4500000000000002     
          35           1   4.0650000000002215        3.9115480737599273        1.2900000000000000     
          36           1   4.0650000000002215        3.9115480737599273        6.4500000000000002     
          37           1   2.7100000000001478        6.2584769180158846        1.2900000000000000     
          38           1   2.7100000000001478        6.2584769180158846        6.4500000000000002     
          39           1   1.3550000000000739        8.6054057622718414        1.2900000000000000     
          40           1   1.3550000000000739        8.6054057622718414        6.4500000000000002     
          41           1   0.0000000000000000        1.5646192295039714        1.2900000000000000     
          42           1   0.0000000000000000        1.5646192295039714        6.4500000000000002     
          43           1   2.7100000000001478        1.5646192295039714        1.2900000000000000     
          44           1   2.7100000000001478        1.5646192295039714        6.4500000000000002     
          45           1   1.3550000000000739        3.9115480737599273        1.2900000000000000     
          46           1   1.3550000000000739        3.9115480737599273        6.4500000000000002     
          47           1   0.0000000000000000        6.2584769180158846        1.2900000000000000     
          48           1   0.0000000000000000        6.2584769180158846        6.4500000000000002     
          49           1   9.4850000000005181        3.9115480737599273        1.2900000000000000     
          50           1   9.4850000000005181        3.9115480737599273        6.4500000000000002     
          51           1   8.1300000000004431        6.2584769180158846        1.2900000000000000     
          52           1   8.1300000000004431        6.2584769180158846        6.4500000000000002     
          53           1   6.7750000000003698        8.6054057622718414        1.2900000000000000     
          54           1   6.7750000000003698        8.6054057622718414        6.4500000000000002     
          55           1   9.4850000000005181        8.6054057622718414        1.2900000000000000     
          56           1   9.4850000000005181        8.6054057622718414        6.4500000000000002     
          57           1   8.1300000000004431        1.5646192295039714        1.2900000000000000     
          58           1   8.1300000000004431        1.5646192295039714        6.4500000000000002     
          59           1   6.7750000000003698        3.9115480737599273        1.2900000000000000     
          60           1   6.7750000000003698        3.9115480737599273        6.4500000000000002     
          61           1   5.4200000000002957        6.2584769180158846        1.2900000000000000     
          62           1   5.4200000000002957        6.2584769180158846        6.4500000000000002     
          63           1   4.0650000000002215        8.6054057622718414        1.2900000000000000     
          64           1   4.0650000000002215        8.6054057622718414        6.4500000000000002     
