 # Something
 64 atoms
 1 atom types
 0   10.679999999998437      xlo xhi 
 0   9.2491513124164513      ylo yhi 
 0   10.560000000000000      zlo zhi 
   0.0000000000000000        0.0000000000000000        0.0000000000000000      xy xz yz
 Atoms
 
           1           1   1.3349999999998046        5.3953382655762638        3.9600000000000000     
           2           1   1.3349999999998046        5.3953382655762638        9.2400000000000002     
           3           1   0.0000000000000000        7.7076260936803767        3.9600000000000000     
           4           1   0.0000000000000000        7.7076260936803767        9.2400000000000002     
           5           1   6.6749999999990228       0.77076260936803753        3.9600000000000000     
           6           1   6.6749999999990228       0.77076260936803753        9.2400000000000002     
           7           1   5.3399999999992183        3.0830504374721501        3.9600000000000000     
           8           1   5.3399999999992183        3.0830504374721501        9.2400000000000002     
           9           1   1.3349999999998046       0.77076260936803753        3.9600000000000000     
          10           1   1.3349999999998046       0.77076260936803753        9.2400000000000002     
          11           1   0.0000000000000000        3.0830504374721501        3.9600000000000000     
          12           1   0.0000000000000000        3.0830504374721501        9.2400000000000002     
          13           1   4.0049999999994137       0.77076260936803753        3.9600000000000000     
          14           1   4.0049999999994137       0.77076260936803753        9.2400000000000002     
          15           1   2.6699999999996091        3.0830504374721501        3.9600000000000000     
          16           1   2.6699999999996091        3.0830504374721501        9.2400000000000002     
          17           1   6.6749999999990228        5.3953382655762638        3.9600000000000000     
          18           1   6.6749999999990228        5.3953382655762638        9.2400000000000002     
          19           1   5.3399999999992183        7.7076260936803767        3.9600000000000000     
          20           1   5.3399999999992183        7.7076260936803767        9.2400000000000002     
          21           1   9.3449999999986311        5.3953382655762638        3.9600000000000000     
          22           1   9.3449999999986311        5.3953382655762638        9.2400000000000002     
          23           1   8.0099999999988274        7.7076260936803767        3.9600000000000000     
          24           1   8.0099999999988274        7.7076260936803767        9.2400000000000002     
          25           1   4.0049999999994137        5.3953382655762638        3.9600000000000000     
          26           1   4.0049999999994137        5.3953382655762638        9.2400000000000002     
          27           1   2.6699999999996091        7.7076260936803767        3.9600000000000000     
          28           1   2.6699999999996091        7.7076260936803767        9.2400000000000002     
          29           1   9.3449999999986311       0.77076260936803753        3.9600000000000000     
          30           1   9.3449999999986311       0.77076260936803753        9.2400000000000002     
          31           1   8.0099999999988274        3.0830504374721501        3.9600000000000000     
          32           1   8.0099999999988274        3.0830504374721501        9.2400000000000002     
          33           1   5.3399999999992183        1.5415252187360757        1.3200000000000001     
          34           1   5.3399999999992183        1.5415252187360757        6.6000000000000005     
          35           1   4.0049999999994137        3.8538130468401883        1.3200000000000001     
          36           1   4.0049999999994137        3.8538130468401883        6.6000000000000005     
          37           1   2.6699999999996091        6.1661008749443011        1.3200000000000001     
          38           1   2.6699999999996091        6.1661008749443011        6.6000000000000005     
          39           1   1.3349999999998046        8.4783887030484149        1.3200000000000001     
          40           1   1.3349999999998046        8.4783887030484149        6.6000000000000005     
          41           1   0.0000000000000000        1.5415252187360757        1.3200000000000001     
          42           1   0.0000000000000000        1.5415252187360757        6.6000000000000005     
          43           1   2.6699999999996091        1.5415252187360757        1.3200000000000001     
          44           1   2.6699999999996091        1.5415252187360757        6.6000000000000005     
          45           1   1.3349999999998046        3.8538130468401883        1.3200000000000001     
          46           1   1.3349999999998046        3.8538130468401883        6.6000000000000005     
          47           1   0.0000000000000000        6.1661008749443011        1.3200000000000001     
          48           1   0.0000000000000000        6.1661008749443011        6.6000000000000005     
          49           1   9.3449999999986311        3.8538130468401883        1.3200000000000001     
          50           1   9.3449999999986311        3.8538130468401883        6.6000000000000005     
          51           1   8.0099999999988274        6.1661008749443011        1.3200000000000001     
          52           1   8.0099999999988274        6.1661008749443011        6.6000000000000005     
          53           1   6.6749999999990228        8.4783887030484149        1.3200000000000001     
          54           1   6.6749999999990228        8.4783887030484149        6.6000000000000005     
          55           1   9.3449999999986311        8.4783887030484149        1.3200000000000001     
          56           1   9.3449999999986311        8.4783887030484149        6.6000000000000005     
          57           1   8.0099999999988274        1.5415252187360757        1.3200000000000001     
          58           1   8.0099999999988274        1.5415252187360757        6.6000000000000005     
          59           1   6.6749999999990228        3.8538130468401883        1.3200000000000001     
          60           1   6.6749999999990228        3.8538130468401883        6.6000000000000005     
          61           1   5.3399999999992183        6.1661008749443011        1.3200000000000001     
          62           1   5.3399999999992183        6.1661008749443011        6.6000000000000005     
          63           1   4.0049999999994137        8.4783887030484149        1.3200000000000001     
          64           1   4.0049999999994137        8.4783887030484149        6.6000000000000005     
