 # Something
 64 atoms
 1 atom types
 0   10.759999999999515      xlo xhi 
 0   9.3184333447201411      ylo yhi 
 0   10.560000000000002      zlo zhi 
   0.0000000000000000        0.0000000000000000        0.0000000000000000      xy xz yz
 Atoms
 
           1           1   1.3449999999999394        5.4357527844200826        3.9600000000000009     
           2           1   1.3449999999999394        5.4357527844200826        9.2400000000000020     
           3           1   0.0000000000000000        7.7653611206001179        3.9600000000000009     
           4           1   0.0000000000000000        7.7653611206001179        9.2400000000000020     
           5           1   6.7249999999996968       0.77653611206001172        3.9600000000000009     
           6           1   6.7249999999996968       0.77653611206001172        9.2400000000000020     
           7           1   5.3799999999997574        3.1061444482400469        3.9600000000000009     
           8           1   5.3799999999997574        3.1061444482400469        9.2400000000000020     
           9           1   1.3449999999999394       0.77653611206001172        3.9600000000000009     
          10           1   1.3449999999999394       0.77653611206001172        9.2400000000000020     
          11           1   0.0000000000000000        3.1061444482400469        3.9600000000000009     
          12           1   0.0000000000000000        3.1061444482400469        9.2400000000000020     
          13           1   4.0349999999998181       0.77653611206001172        3.9600000000000009     
          14           1   4.0349999999998181       0.77653611206001172        9.2400000000000020     
          15           1   2.6899999999998787        3.1061444482400469        3.9600000000000009     
          16           1   2.6899999999998787        3.1061444482400469        9.2400000000000020     
          17           1   6.7249999999996968        5.4357527844200826        3.9600000000000009     
          18           1   6.7249999999996968        5.4357527844200826        9.2400000000000020     
          19           1   5.3799999999997574        7.7653611206001179        3.9600000000000009     
          20           1   5.3799999999997574        7.7653611206001179        9.2400000000000020     
          21           1   9.4149999999995764        5.4357527844200826        3.9600000000000009     
          22           1   9.4149999999995764        5.4357527844200826        9.2400000000000020     
          23           1   8.0699999999996361        7.7653611206001179        3.9600000000000009     
          24           1   8.0699999999996361        7.7653611206001179        9.2400000000000020     
          25           1   4.0349999999998181        5.4357527844200826        3.9600000000000009     
          26           1   4.0349999999998181        5.4357527844200826        9.2400000000000020     
          27           1   2.6899999999998787        7.7653611206001179        3.9600000000000009     
          28           1   2.6899999999998787        7.7653611206001179        9.2400000000000020     
          29           1   9.4149999999995764       0.77653611206001172        3.9600000000000009     
          30           1   9.4149999999995764       0.77653611206001172        9.2400000000000020     
          31           1   8.0699999999996361        3.1061444482400469        3.9600000000000009     
          32           1   8.0699999999996361        3.1061444482400469        9.2400000000000020     
          33           1   5.3799999999997574        1.5530722241200239        1.3200000000000003     
          34           1   5.3799999999997574        1.5530722241200239        6.6000000000000014     
          35           1   4.0349999999998181        3.8826805603000589        1.3200000000000003     
          36           1   4.0349999999998181        3.8826805603000589        6.6000000000000014     
          37           1   2.6899999999998787        6.2122888964800946        1.3200000000000003     
          38           1   2.6899999999998787        6.2122888964800946        6.6000000000000014     
          39           1   1.3449999999999394        8.5418972326601299        1.3200000000000003     
          40           1   1.3449999999999394        8.5418972326601299        6.6000000000000014     
          41           1   0.0000000000000000        1.5530722241200239        1.3200000000000003     
          42           1   0.0000000000000000        1.5530722241200239        6.6000000000000014     
          43           1   2.6899999999998787        1.5530722241200239        1.3200000000000003     
          44           1   2.6899999999998787        1.5530722241200239        6.6000000000000014     
          45           1   1.3449999999999394        3.8826805603000589        1.3200000000000003     
          46           1   1.3449999999999394        3.8826805603000589        6.6000000000000014     
          47           1   0.0000000000000000        6.2122888964800946        1.3200000000000003     
          48           1   0.0000000000000000        6.2122888964800946        6.6000000000000014     
          49           1   9.4149999999995764        3.8826805603000589        1.3200000000000003     
          50           1   9.4149999999995764        3.8826805603000589        6.6000000000000014     
          51           1   8.0699999999996361        6.2122888964800946        1.3200000000000003     
          52           1   8.0699999999996361        6.2122888964800946        6.6000000000000014     
          53           1   6.7249999999996968        8.5418972326601299        1.3200000000000003     
          54           1   6.7249999999996968        8.5418972326601299        6.6000000000000014     
          55           1   9.4149999999995764        8.5418972326601299        1.3200000000000003     
          56           1   9.4149999999995764        8.5418972326601299        6.6000000000000014     
          57           1   8.0699999999996361        1.5530722241200239        1.3200000000000003     
          58           1   8.0699999999996361        1.5530722241200239        6.6000000000000014     
          59           1   6.7249999999996968        3.8826805603000589        1.3200000000000003     
          60           1   6.7249999999996968        3.8826805603000589        6.6000000000000014     
          61           1   5.3799999999997574        6.2122888964800946        1.3200000000000003     
          62           1   5.3799999999997574        6.2122888964800946        6.6000000000000014     
          63           1   4.0349999999998181        8.5418972326601299        1.3200000000000003     
          64           1   4.0349999999998181        8.5418972326601299        6.6000000000000014     
