 # Something
 64 atoms
 1 atom types
 0   10.759999999999515      xlo xhi 
 0   9.3184333447201411      ylo yhi 
 0   10.199999999999998      zlo zhi 
   0.0000000000000000        0.0000000000000000        0.0000000000000000      xy xz yz
 Atoms
 
           1           1   1.3449999999999394        5.4357527844200826        3.8249999999999993     
           2           1   1.3449999999999394        5.4357527844200826        8.9249999999999972     
           3           1   0.0000000000000000        7.7653611206001179        3.8249999999999993     
           4           1   0.0000000000000000        7.7653611206001179        8.9249999999999972     
           5           1   6.7249999999996968       0.77653611206001172        3.8249999999999993     
           6           1   6.7249999999996968       0.77653611206001172        8.9249999999999972     
           7           1   5.3799999999997574        3.1061444482400469        3.8249999999999993     
           8           1   5.3799999999997574        3.1061444482400469        8.9249999999999972     
           9           1   1.3449999999999394       0.77653611206001172        3.8249999999999993     
          10           1   1.3449999999999394       0.77653611206001172        8.9249999999999972     
          11           1   0.0000000000000000        3.1061444482400469        3.8249999999999993     
          12           1   0.0000000000000000        3.1061444482400469        8.9249999999999972     
          13           1   4.0349999999998181       0.77653611206001172        3.8249999999999993     
          14           1   4.0349999999998181       0.77653611206001172        8.9249999999999972     
          15           1   2.6899999999998787        3.1061444482400469        3.8249999999999993     
          16           1   2.6899999999998787        3.1061444482400469        8.9249999999999972     
          17           1   6.7249999999996968        5.4357527844200826        3.8249999999999993     
          18           1   6.7249999999996968        5.4357527844200826        8.9249999999999972     
          19           1   5.3799999999997574        7.7653611206001179        3.8249999999999993     
          20           1   5.3799999999997574        7.7653611206001179        8.9249999999999972     
          21           1   9.4149999999995764        5.4357527844200826        3.8249999999999993     
          22           1   9.4149999999995764        5.4357527844200826        8.9249999999999972     
          23           1   8.0699999999996361        7.7653611206001179        3.8249999999999993     
          24           1   8.0699999999996361        7.7653611206001179        8.9249999999999972     
          25           1   4.0349999999998181        5.4357527844200826        3.8249999999999993     
          26           1   4.0349999999998181        5.4357527844200826        8.9249999999999972     
          27           1   2.6899999999998787        7.7653611206001179        3.8249999999999993     
          28           1   2.6899999999998787        7.7653611206001179        8.9249999999999972     
          29           1   9.4149999999995764       0.77653611206001172        3.8249999999999993     
          30           1   9.4149999999995764       0.77653611206001172        8.9249999999999972     
          31           1   8.0699999999996361        3.1061444482400469        3.8249999999999993     
          32           1   8.0699999999996361        3.1061444482400469        8.9249999999999972     
          33           1   5.3799999999997574        1.5530722241200239        1.2749999999999997     
          34           1   5.3799999999997574        1.5530722241200239        6.3749999999999982     
          35           1   4.0349999999998181        3.8826805603000589        1.2749999999999997     
          36           1   4.0349999999998181        3.8826805603000589        6.3749999999999982     
          37           1   2.6899999999998787        6.2122888964800946        1.2749999999999997     
          38           1   2.6899999999998787        6.2122888964800946        6.3749999999999982     
          39           1   1.3449999999999394        8.5418972326601299        1.2749999999999997     
          40           1   1.3449999999999394        8.5418972326601299        6.3749999999999982     
          41           1   0.0000000000000000        1.5530722241200239        1.2749999999999997     
          42           1   0.0000000000000000        1.5530722241200239        6.3749999999999982     
          43           1   2.6899999999998787        1.5530722241200239        1.2749999999999997     
          44           1   2.6899999999998787        1.5530722241200239        6.3749999999999982     
          45           1   1.3449999999999394        3.8826805603000589        1.2749999999999997     
          46           1   1.3449999999999394        3.8826805603000589        6.3749999999999982     
          47           1   0.0000000000000000        6.2122888964800946        1.2749999999999997     
          48           1   0.0000000000000000        6.2122888964800946        6.3749999999999982     
          49           1   9.4149999999995764        3.8826805603000589        1.2749999999999997     
          50           1   9.4149999999995764        3.8826805603000589        6.3749999999999982     
          51           1   8.0699999999996361        6.2122888964800946        1.2749999999999997     
          52           1   8.0699999999996361        6.2122888964800946        6.3749999999999982     
          53           1   6.7249999999996968        8.5418972326601299        1.2749999999999997     
          54           1   6.7249999999996968        8.5418972326601299        6.3749999999999982     
          55           1   9.4149999999995764        8.5418972326601299        1.2749999999999997     
          56           1   9.4149999999995764        8.5418972326601299        6.3749999999999982     
          57           1   8.0699999999996361        1.5530722241200239        1.2749999999999997     
          58           1   8.0699999999996361        1.5530722241200239        6.3749999999999982     
          59           1   6.7249999999996968        3.8826805603000589        1.2749999999999997     
          60           1   6.7249999999996968        3.8826805603000589        6.3749999999999982     
          61           1   5.3799999999997574        6.2122888964800946        1.2749999999999997     
          62           1   5.3799999999997574        6.2122888964800946        6.3749999999999982     
          63           1   4.0349999999998181        8.5418972326601299        1.2749999999999997     
          64           1   4.0349999999998181        8.5418972326601299        6.3749999999999982     
