 # Something
 64 atoms
 1 atom types
 0   10.759999999999515      xlo xhi 
 0   9.3184333447201411      ylo yhi 
 0   10.320000000000000      zlo zhi 
   0.0000000000000000        0.0000000000000000        0.0000000000000000      xy xz yz
 Atoms
 
           1           1   1.3449999999999394        5.4357527844200826        3.8700000000000001     
           2           1   1.3449999999999394        5.4357527844200826        9.0300000000000011     
           3           1   0.0000000000000000        7.7653611206001179        3.8700000000000001     
           4           1   0.0000000000000000        7.7653611206001179        9.0300000000000011     
           5           1   6.7249999999996968       0.77653611206001172        3.8700000000000001     
           6           1   6.7249999999996968       0.77653611206001172        9.0300000000000011     
           7           1   5.3799999999997574        3.1061444482400469        3.8700000000000001     
           8           1   5.3799999999997574        3.1061444482400469        9.0300000000000011     
           9           1   1.3449999999999394       0.77653611206001172        3.8700000000000001     
          10           1   1.3449999999999394       0.77653611206001172        9.0300000000000011     
          11           1   0.0000000000000000        3.1061444482400469        3.8700000000000001     
          12           1   0.0000000000000000        3.1061444482400469        9.0300000000000011     
          13           1   4.0349999999998181       0.77653611206001172        3.8700000000000001     
          14           1   4.0349999999998181       0.77653611206001172        9.0300000000000011     
          15           1   2.6899999999998787        3.1061444482400469        3.8700000000000001     
          16           1   2.6899999999998787        3.1061444482400469        9.0300000000000011     
          17           1   6.7249999999996968        5.4357527844200826        3.8700000000000001     
          18           1   6.7249999999996968        5.4357527844200826        9.0300000000000011     
          19           1   5.3799999999997574        7.7653611206001179        3.8700000000000001     
          20           1   5.3799999999997574        7.7653611206001179        9.0300000000000011     
          21           1   9.4149999999995764        5.4357527844200826        3.8700000000000001     
          22           1   9.4149999999995764        5.4357527844200826        9.0300000000000011     
          23           1   8.0699999999996361        7.7653611206001179        3.8700000000000001     
          24           1   8.0699999999996361        7.7653611206001179        9.0300000000000011     
          25           1   4.0349999999998181        5.4357527844200826        3.8700000000000001     
          26           1   4.0349999999998181        5.4357527844200826        9.0300000000000011     
          27           1   2.6899999999998787        7.7653611206001179        3.8700000000000001     
          28           1   2.6899999999998787        7.7653611206001179        9.0300000000000011     
          29           1   9.4149999999995764       0.77653611206001172        3.8700000000000001     
          30           1   9.4149999999995764       0.77653611206001172        9.0300000000000011     
          31           1   8.0699999999996361        3.1061444482400469        3.8700000000000001     
          32           1   8.0699999999996361        3.1061444482400469        9.0300000000000011     
          33           1   5.3799999999997574        1.5530722241200239        1.2900000000000000     
          34           1   5.3799999999997574        1.5530722241200239        6.4500000000000002     
          35           1   4.0349999999998181        3.8826805603000589        1.2900000000000000     
          36           1   4.0349999999998181        3.8826805603000589        6.4500000000000002     
          37           1   2.6899999999998787        6.2122888964800946        1.2900000000000000     
          38           1   2.6899999999998787        6.2122888964800946        6.4500000000000002     
          39           1   1.3449999999999394        8.5418972326601299        1.2900000000000000     
          40           1   1.3449999999999394        8.5418972326601299        6.4500000000000002     
          41           1   0.0000000000000000        1.5530722241200239        1.2900000000000000     
          42           1   0.0000000000000000        1.5530722241200239        6.4500000000000002     
          43           1   2.6899999999998787        1.5530722241200239        1.2900000000000000     
          44           1   2.6899999999998787        1.5530722241200239        6.4500000000000002     
          45           1   1.3449999999999394        3.8826805603000589        1.2900000000000000     
          46           1   1.3449999999999394        3.8826805603000589        6.4500000000000002     
          47           1   0.0000000000000000        6.2122888964800946        1.2900000000000000     
          48           1   0.0000000000000000        6.2122888964800946        6.4500000000000002     
          49           1   9.4149999999995764        3.8826805603000589        1.2900000000000000     
          50           1   9.4149999999995764        3.8826805603000589        6.4500000000000002     
          51           1   8.0699999999996361        6.2122888964800946        1.2900000000000000     
          52           1   8.0699999999996361        6.2122888964800946        6.4500000000000002     
          53           1   6.7249999999996968        8.5418972326601299        1.2900000000000000     
          54           1   6.7249999999996968        8.5418972326601299        6.4500000000000002     
          55           1   9.4149999999995764        8.5418972326601299        1.2900000000000000     
          56           1   9.4149999999995764        8.5418972326601299        6.4500000000000002     
          57           1   8.0699999999996361        1.5530722241200239        1.2900000000000000     
          58           1   8.0699999999996361        1.5530722241200239        6.4500000000000002     
          59           1   6.7249999999996968        3.8826805603000589        1.2900000000000000     
          60           1   6.7249999999996968        3.8826805603000589        6.4500000000000002     
          61           1   5.3799999999997574        6.2122888964800946        1.2900000000000000     
          62           1   5.3799999999997574        6.2122888964800946        6.4500000000000002     
          63           1   4.0349999999998181        8.5418972326601299        1.2900000000000000     
          64           1   4.0349999999998181        8.5418972326601299        6.4500000000000002     
