 # Something
 64 atoms
 1 atom types
 0   10.679999999998437      xlo xhi 
 0   9.2491513124164513      ylo yhi 
 0   10.199999999999998      zlo zhi 
   0.0000000000000000        0.0000000000000000        0.0000000000000000      xy xz yz
 Atoms
 
           1           1   1.3349999999998046        5.3953382655762638        3.8249999999999993     
           2           1   1.3349999999998046        5.3953382655762638        8.9249999999999972     
           3           1   0.0000000000000000        7.7076260936803767        3.8249999999999993     
           4           1   0.0000000000000000        7.7076260936803767        8.9249999999999972     
           5           1   6.6749999999990228       0.77076260936803753        3.8249999999999993     
           6           1   6.6749999999990228       0.77076260936803753        8.9249999999999972     
           7           1   5.3399999999992183        3.0830504374721501        3.8249999999999993     
           8           1   5.3399999999992183        3.0830504374721501        8.9249999999999972     
           9           1   1.3349999999998046       0.77076260936803753        3.8249999999999993     
          10           1   1.3349999999998046       0.77076260936803753        8.9249999999999972     
          11           1   0.0000000000000000        3.0830504374721501        3.8249999999999993     
          12           1   0.0000000000000000        3.0830504374721501        8.9249999999999972     
          13           1   4.0049999999994137       0.77076260936803753        3.8249999999999993     
          14           1   4.0049999999994137       0.77076260936803753        8.9249999999999972     
          15           1   2.6699999999996091        3.0830504374721501        3.8249999999999993     
          16           1   2.6699999999996091        3.0830504374721501        8.9249999999999972     
          17           1   6.6749999999990228        5.3953382655762638        3.8249999999999993     
          18           1   6.6749999999990228        5.3953382655762638        8.9249999999999972     
          19           1   5.3399999999992183        7.7076260936803767        3.8249999999999993     
          20           1   5.3399999999992183        7.7076260936803767        8.9249999999999972     
          21           1   9.3449999999986311        5.3953382655762638        3.8249999999999993     
          22           1   9.3449999999986311        5.3953382655762638        8.9249999999999972     
          23           1   8.0099999999988274        7.7076260936803767        3.8249999999999993     
          24           1   8.0099999999988274        7.7076260936803767        8.9249999999999972     
          25           1   4.0049999999994137        5.3953382655762638        3.8249999999999993     
          26           1   4.0049999999994137        5.3953382655762638        8.9249999999999972     
          27           1   2.6699999999996091        7.7076260936803767        3.8249999999999993     
          28           1   2.6699999999996091        7.7076260936803767        8.9249999999999972     
          29           1   9.3449999999986311       0.77076260936803753        3.8249999999999993     
          30           1   9.3449999999986311       0.77076260936803753        8.9249999999999972     
          31           1   8.0099999999988274        3.0830504374721501        3.8249999999999993     
          32           1   8.0099999999988274        3.0830504374721501        8.9249999999999972     
          33           1   5.3399999999992183        1.5415252187360757        1.2749999999999997     
          34           1   5.3399999999992183        1.5415252187360757        6.3749999999999982     
          35           1   4.0049999999994137        3.8538130468401883        1.2749999999999997     
          36           1   4.0049999999994137        3.8538130468401883        6.3749999999999982     
          37           1   2.6699999999996091        6.1661008749443011        1.2749999999999997     
          38           1   2.6699999999996091        6.1661008749443011        6.3749999999999982     
          39           1   1.3349999999998046        8.4783887030484149        1.2749999999999997     
          40           1   1.3349999999998046        8.4783887030484149        6.3749999999999982     
          41           1   0.0000000000000000        1.5415252187360757        1.2749999999999997     
          42           1   0.0000000000000000        1.5415252187360757        6.3749999999999982     
          43           1   2.6699999999996091        1.5415252187360757        1.2749999999999997     
          44           1   2.6699999999996091        1.5415252187360757        6.3749999999999982     
          45           1   1.3349999999998046        3.8538130468401883        1.2749999999999997     
          46           1   1.3349999999998046        3.8538130468401883        6.3749999999999982     
          47           1   0.0000000000000000        6.1661008749443011        1.2749999999999997     
          48           1   0.0000000000000000        6.1661008749443011        6.3749999999999982     
          49           1   9.3449999999986311        3.8538130468401883        1.2749999999999997     
          50           1   9.3449999999986311        3.8538130468401883        6.3749999999999982     
          51           1   8.0099999999988274        6.1661008749443011        1.2749999999999997     
          52           1   8.0099999999988274        6.1661008749443011        6.3749999999999982     
          53           1   6.6749999999990228        8.4783887030484149        1.2749999999999997     
          54           1   6.6749999999990228        8.4783887030484149        6.3749999999999982     
          55           1   9.3449999999986311        8.4783887030484149        1.2749999999999997     
          56           1   9.3449999999986311        8.4783887030484149        6.3749999999999982     
          57           1   8.0099999999988274        1.5415252187360757        1.2749999999999997     
          58           1   8.0099999999988274        1.5415252187360757        6.3749999999999982     
          59           1   6.6749999999990228        3.8538130468401883        1.2749999999999997     
          60           1   6.6749999999990228        3.8538130468401883        6.3749999999999982     
          61           1   5.3399999999992183        6.1661008749443011        1.2749999999999997     
          62           1   5.3399999999992183        6.1661008749443011        6.3749999999999982     
          63           1   4.0049999999994137        8.4783887030484149        1.2749999999999997     
          64           1   4.0049999999994137        8.4783887030484149        6.3749999999999982     
