 # Something
 64 atoms
 1 atom types
 0   10.759999999999515      xlo xhi 
 0   9.3184333447201411      ylo yhi 
 0   10.680000000000001      zlo zhi 
   0.0000000000000000        0.0000000000000000        0.0000000000000000      xy xz yz
 Atoms
 
           1           1   1.3449999999999394        5.4357527844200826        4.0050000000000008     
           2           1   1.3449999999999394        5.4357527844200826        9.3450000000000006     
           3           1   0.0000000000000000        7.7653611206001179        4.0050000000000008     
           4           1   0.0000000000000000        7.7653611206001179        9.3450000000000006     
           5           1   6.7249999999996968       0.77653611206001172        4.0050000000000008     
           6           1   6.7249999999996968       0.77653611206001172        9.3450000000000006     
           7           1   5.3799999999997574        3.1061444482400469        4.0050000000000008     
           8           1   5.3799999999997574        3.1061444482400469        9.3450000000000006     
           9           1   1.3449999999999394       0.77653611206001172        4.0050000000000008     
          10           1   1.3449999999999394       0.77653611206001172        9.3450000000000006     
          11           1   0.0000000000000000        3.1061444482400469        4.0050000000000008     
          12           1   0.0000000000000000        3.1061444482400469        9.3450000000000006     
          13           1   4.0349999999998181       0.77653611206001172        4.0050000000000008     
          14           1   4.0349999999998181       0.77653611206001172        9.3450000000000006     
          15           1   2.6899999999998787        3.1061444482400469        4.0050000000000008     
          16           1   2.6899999999998787        3.1061444482400469        9.3450000000000006     
          17           1   6.7249999999996968        5.4357527844200826        4.0050000000000008     
          18           1   6.7249999999996968        5.4357527844200826        9.3450000000000006     
          19           1   5.3799999999997574        7.7653611206001179        4.0050000000000008     
          20           1   5.3799999999997574        7.7653611206001179        9.3450000000000006     
          21           1   9.4149999999995764        5.4357527844200826        4.0050000000000008     
          22           1   9.4149999999995764        5.4357527844200826        9.3450000000000006     
          23           1   8.0699999999996361        7.7653611206001179        4.0050000000000008     
          24           1   8.0699999999996361        7.7653611206001179        9.3450000000000006     
          25           1   4.0349999999998181        5.4357527844200826        4.0050000000000008     
          26           1   4.0349999999998181        5.4357527844200826        9.3450000000000006     
          27           1   2.6899999999998787        7.7653611206001179        4.0050000000000008     
          28           1   2.6899999999998787        7.7653611206001179        9.3450000000000006     
          29           1   9.4149999999995764       0.77653611206001172        4.0050000000000008     
          30           1   9.4149999999995764       0.77653611206001172        9.3450000000000006     
          31           1   8.0699999999996361        3.1061444482400469        4.0050000000000008     
          32           1   8.0699999999996361        3.1061444482400469        9.3450000000000006     
          33           1   5.3799999999997574        1.5530722241200239        1.3350000000000002     
          34           1   5.3799999999997574        1.5530722241200239        6.6750000000000007     
          35           1   4.0349999999998181        3.8826805603000589        1.3350000000000002     
          36           1   4.0349999999998181        3.8826805603000589        6.6750000000000007     
          37           1   2.6899999999998787        6.2122888964800946        1.3350000000000002     
          38           1   2.6899999999998787        6.2122888964800946        6.6750000000000007     
          39           1   1.3449999999999394        8.5418972326601299        1.3350000000000002     
          40           1   1.3449999999999394        8.5418972326601299        6.6750000000000007     
          41           1   0.0000000000000000        1.5530722241200239        1.3350000000000002     
          42           1   0.0000000000000000        1.5530722241200239        6.6750000000000007     
          43           1   2.6899999999998787        1.5530722241200239        1.3350000000000002     
          44           1   2.6899999999998787        1.5530722241200239        6.6750000000000007     
          45           1   1.3449999999999394        3.8826805603000589        1.3350000000000002     
          46           1   1.3449999999999394        3.8826805603000589        6.6750000000000007     
          47           1   0.0000000000000000        6.2122888964800946        1.3350000000000002     
          48           1   0.0000000000000000        6.2122888964800946        6.6750000000000007     
          49           1   9.4149999999995764        3.8826805603000589        1.3350000000000002     
          50           1   9.4149999999995764        3.8826805603000589        6.6750000000000007     
          51           1   8.0699999999996361        6.2122888964800946        1.3350000000000002     
          52           1   8.0699999999996361        6.2122888964800946        6.6750000000000007     
          53           1   6.7249999999996968        8.5418972326601299        1.3350000000000002     
          54           1   6.7249999999996968        8.5418972326601299        6.6750000000000007     
          55           1   9.4149999999995764        8.5418972326601299        1.3350000000000002     
          56           1   9.4149999999995764        8.5418972326601299        6.6750000000000007     
          57           1   8.0699999999996361        1.5530722241200239        1.3350000000000002     
          58           1   8.0699999999996361        1.5530722241200239        6.6750000000000007     
          59           1   6.7249999999996968        3.8826805603000589        1.3350000000000002     
          60           1   6.7249999999996968        3.8826805603000589        6.6750000000000007     
          61           1   5.3799999999997574        6.2122888964800946        1.3350000000000002     
          62           1   5.3799999999997574        6.2122888964800946        6.6750000000000007     
          63           1   4.0349999999998181        8.5418972326601299        1.3350000000000002     
          64           1   4.0349999999998181        8.5418972326601299        6.6750000000000007     
