 # Something
 64 atoms
 1 atom types
 0   10.679999999998437      xlo xhi 
 0   9.2491513124164513      ylo yhi 
 0   10.679999999998437      zlo zhi 
   0.0000000000000000        0.0000000000000000        0.0000000000000000      xy xz yz
 Atoms
 
           1           1   1.3349999999998046        5.3953382655762638        4.0049999999994137     
           2           1   1.3349999999998046        5.3953382655762638        9.3449999999986311     
           3           1   0.0000000000000000        7.7076260936803767        4.0049999999994137     
           4           1   0.0000000000000000        7.7076260936803767        9.3449999999986311     
           5           1   6.6749999999990228       0.77076260936803753        4.0049999999994137     
           6           1   6.6749999999990228       0.77076260936803753        9.3449999999986311     
           7           1   5.3399999999992183        3.0830504374721501        4.0049999999994137     
           8           1   5.3399999999992183        3.0830504374721501        9.3449999999986311     
           9           1   1.3349999999998046       0.77076260936803753        4.0049999999994137     
          10           1   1.3349999999998046       0.77076260936803753        9.3449999999986311     
          11           1   0.0000000000000000        3.0830504374721501        4.0049999999994137     
          12           1   0.0000000000000000        3.0830504374721501        9.3449999999986311     
          13           1   4.0049999999994137       0.77076260936803753        4.0049999999994137     
          14           1   4.0049999999994137       0.77076260936803753        9.3449999999986311     
          15           1   2.6699999999996091        3.0830504374721501        4.0049999999994137     
          16           1   2.6699999999996091        3.0830504374721501        9.3449999999986311     
          17           1   6.6749999999990228        5.3953382655762638        4.0049999999994137     
          18           1   6.6749999999990228        5.3953382655762638        9.3449999999986311     
          19           1   5.3399999999992183        7.7076260936803767        4.0049999999994137     
          20           1   5.3399999999992183        7.7076260936803767        9.3449999999986311     
          21           1   9.3449999999986311        5.3953382655762638        4.0049999999994137     
          22           1   9.3449999999986311        5.3953382655762638        9.3449999999986311     
          23           1   8.0099999999988274        7.7076260936803767        4.0049999999994137     
          24           1   8.0099999999988274        7.7076260936803767        9.3449999999986311     
          25           1   4.0049999999994137        5.3953382655762638        4.0049999999994137     
          26           1   4.0049999999994137        5.3953382655762638        9.3449999999986311     
          27           1   2.6699999999996091        7.7076260936803767        4.0049999999994137     
          28           1   2.6699999999996091        7.7076260936803767        9.3449999999986311     
          29           1   9.3449999999986311       0.77076260936803753        4.0049999999994137     
          30           1   9.3449999999986311       0.77076260936803753        9.3449999999986311     
          31           1   8.0099999999988274        3.0830504374721501        4.0049999999994137     
          32           1   8.0099999999988274        3.0830504374721501        9.3449999999986311     
          33           1   5.3399999999992183        1.5415252187360757        1.3349999999998046     
          34           1   5.3399999999992183        1.5415252187360757        6.6749999999990228     
          35           1   4.0049999999994137        3.8538130468401883        1.3349999999998046     
          36           1   4.0049999999994137        3.8538130468401883        6.6749999999990228     
          37           1   2.6699999999996091        6.1661008749443011        1.3349999999998046     
          38           1   2.6699999999996091        6.1661008749443011        6.6749999999990228     
          39           1   1.3349999999998046        8.4783887030484149        1.3349999999998046     
          40           1   1.3349999999998046        8.4783887030484149        6.6749999999990228     
          41           1   0.0000000000000000        1.5415252187360757        1.3349999999998046     
          42           1   0.0000000000000000        1.5415252187360757        6.6749999999990228     
          43           1   2.6699999999996091        1.5415252187360757        1.3349999999998046     
          44           1   2.6699999999996091        1.5415252187360757        6.6749999999990228     
          45           1   1.3349999999998046        3.8538130468401883        1.3349999999998046     
          46           1   1.3349999999998046        3.8538130468401883        6.6749999999990228     
          47           1   0.0000000000000000        6.1661008749443011        1.3349999999998046     
          48           1   0.0000000000000000        6.1661008749443011        6.6749999999990228     
          49           1   9.3449999999986311        3.8538130468401883        1.3349999999998046     
          50           1   9.3449999999986311        3.8538130468401883        6.6749999999990228     
          51           1   8.0099999999988274        6.1661008749443011        1.3349999999998046     
          52           1   8.0099999999988274        6.1661008749443011        6.6749999999990228     
          53           1   6.6749999999990228        8.4783887030484149        1.3349999999998046     
          54           1   6.6749999999990228        8.4783887030484149        6.6749999999990228     
          55           1   9.3449999999986311        8.4783887030484149        1.3349999999998046     
          56           1   9.3449999999986311        8.4783887030484149        6.6749999999990228     
          57           1   8.0099999999988274        1.5415252187360757        1.3349999999998046     
          58           1   8.0099999999988274        1.5415252187360757        6.6749999999990228     
          59           1   6.6749999999990228        3.8538130468401883        1.3349999999998046     
          60           1   6.6749999999990228        3.8538130468401883        6.6749999999990228     
          61           1   5.3399999999992183        6.1661008749443011        1.3349999999998046     
          62           1   5.3399999999992183        6.1661008749443011        6.6749999999990228     
          63           1   4.0049999999994137        8.4783887030484149        1.3349999999998046     
          64           1   4.0049999999994137        8.4783887030484149        6.6749999999990228     
