 # Something
 64 atoms
 1 atom types
 0   10.840000000000591      xlo xhi 
 0   9.3877153770238255      ylo yhi 
 0   10.559999999999999      zlo zhi 
   0.0000000000000000        0.0000000000000000        0.0000000000000000      xy xz yz
 Atoms
 
           1           1   1.3550000000000739        5.4761673032638987        3.9599999999999995     
           2           1   1.3550000000000739        5.4761673032638987        9.2399999999999984     
           3           1   0.0000000000000000        7.8230961475198546        3.9599999999999995     
           4           1   0.0000000000000000        7.8230961475198546        9.2399999999999984     
           5           1   6.7750000000003698       0.78230961475198546        3.9599999999999995     
           6           1   6.7750000000003698       0.78230961475198546        9.2399999999999984     
           7           1   5.4200000000002957        3.1292384590079418        3.9599999999999995     
           8           1   5.4200000000002957        3.1292384590079418        9.2399999999999984     
           9           1   1.3550000000000739       0.78230961475198546        3.9599999999999995     
          10           1   1.3550000000000739       0.78230961475198546        9.2399999999999984     
          11           1   0.0000000000000000        3.1292384590079418        3.9599999999999995     
          12           1   0.0000000000000000        3.1292384590079418        9.2399999999999984     
          13           1   4.0650000000002215       0.78230961475198546        3.9599999999999995     
          14           1   4.0650000000002215       0.78230961475198546        9.2399999999999984     
          15           1   2.7100000000001478        3.1292384590079418        3.9599999999999995     
          16           1   2.7100000000001478        3.1292384590079418        9.2399999999999984     
          17           1   6.7750000000003698        5.4761673032638987        3.9599999999999995     
          18           1   6.7750000000003698        5.4761673032638987        9.2399999999999984     
          19           1   5.4200000000002957        7.8230961475198546        3.9599999999999995     
          20           1   5.4200000000002957        7.8230961475198546        9.2399999999999984     
          21           1   9.4850000000005181        5.4761673032638987        3.9599999999999995     
          22           1   9.4850000000005181        5.4761673032638987        9.2399999999999984     
          23           1   8.1300000000004431        7.8230961475198546        3.9599999999999995     
          24           1   8.1300000000004431        7.8230961475198546        9.2399999999999984     
          25           1   4.0650000000002215        5.4761673032638987        3.9599999999999995     
          26           1   4.0650000000002215        5.4761673032638987        9.2399999999999984     
          27           1   2.7100000000001478        7.8230961475198546        3.9599999999999995     
          28           1   2.7100000000001478        7.8230961475198546        9.2399999999999984     
          29           1   9.4850000000005181       0.78230961475198546        3.9599999999999995     
          30           1   9.4850000000005181       0.78230961475198546        9.2399999999999984     
          31           1   8.1300000000004431        3.1292384590079418        3.9599999999999995     
          32           1   8.1300000000004431        3.1292384590079418        9.2399999999999984     
          33           1   5.4200000000002957        1.5646192295039714        1.3199999999999998     
          34           1   5.4200000000002957        1.5646192295039714        6.5999999999999996     
          35           1   4.0650000000002215        3.9115480737599273        1.3199999999999998     
          36           1   4.0650000000002215        3.9115480737599273        6.5999999999999996     
          37           1   2.7100000000001478        6.2584769180158846        1.3199999999999998     
          38           1   2.7100000000001478        6.2584769180158846        6.5999999999999996     
          39           1   1.3550000000000739        8.6054057622718414        1.3199999999999998     
          40           1   1.3550000000000739        8.6054057622718414        6.5999999999999996     
          41           1   0.0000000000000000        1.5646192295039714        1.3199999999999998     
          42           1   0.0000000000000000        1.5646192295039714        6.5999999999999996     
          43           1   2.7100000000001478        1.5646192295039714        1.3199999999999998     
          44           1   2.7100000000001478        1.5646192295039714        6.5999999999999996     
          45           1   1.3550000000000739        3.9115480737599273        1.3199999999999998     
          46           1   1.3550000000000739        3.9115480737599273        6.5999999999999996     
          47           1   0.0000000000000000        6.2584769180158846        1.3199999999999998     
          48           1   0.0000000000000000        6.2584769180158846        6.5999999999999996     
          49           1   9.4850000000005181        3.9115480737599273        1.3199999999999998     
          50           1   9.4850000000005181        3.9115480737599273        6.5999999999999996     
          51           1   8.1300000000004431        6.2584769180158846        1.3199999999999998     
          52           1   8.1300000000004431        6.2584769180158846        6.5999999999999996     
          53           1   6.7750000000003698        8.6054057622718414        1.3199999999999998     
          54           1   6.7750000000003698        8.6054057622718414        6.5999999999999996     
          55           1   9.4850000000005181        8.6054057622718414        1.3199999999999998     
          56           1   9.4850000000005181        8.6054057622718414        6.5999999999999996     
          57           1   8.1300000000004431        1.5646192295039714        1.3199999999999998     
          58           1   8.1300000000004431        1.5646192295039714        6.5999999999999996     
          59           1   6.7750000000003698        3.9115480737599273        1.3199999999999998     
          60           1   6.7750000000003698        3.9115480737599273        6.5999999999999996     
          61           1   5.4200000000002957        6.2584769180158846        1.3199999999999998     
          62           1   5.4200000000002957        6.2584769180158846        6.5999999999999996     
          63           1   4.0650000000002215        8.6054057622718414        1.3199999999999998     
          64           1   4.0650000000002215        8.6054057622718414        6.5999999999999996     
