LAMMPS (29 Sep 2021 - Update 1)
Reading data file ...
  triclinic box = (0.0000000 0.0000000 0.0000000) to (10.640000 9.2145103 9.9800000) with tilt (0.0000000 0.0000000 0.0000000)
  1 by 1 by 1 MPI processor grid
  reading atoms ...
  64 atoms
  read_data CPU = 0.001 seconds
Neighbor list info ...
  update every 1 steps, delay 0 steps, check yes
  max neighbors/atom: 2000, page size: 100000
  master list distance cutoff = 7
  ghost atom cutoff = 7
  binsize = 3.5, bins = 4 3 3
  1 neighbor lists, perpetual/occasional/extra = 1 0 0
  (1) pair mlip, perpetual
      attributes: full, newton on
      pair build: full/bin/atomonly
      stencil: full/bin/3d
      bin: standard
Setting up Verlet run ...
  Unit style    : metal
  Current step  : 0
  Time step     : 0.001
Per MPI rank memory allocation (min/avg/max) = 3.089 | 3.089 | 3.089 Mbytes
Step Time Temp Volume Press 
       0            0         1380    978.46305    218.83906 
       1        0.001    1379.0824    978.46305    250.97806 
       2        0.002    1376.3327    978.46305    347.28142 
       3        0.003    1371.7598    978.46305    507.42544 
       4        0.004    1365.3789    978.46305    730.88124 
       5        0.005    1357.2117    978.46305    1016.6253 
       6        0.006    1347.2867    978.46305    1361.6041 
       7        0.007    1335.6397    978.46305    1764.4639 
       8        0.008    1322.3132    978.46305    2220.0468 
       9        0.009    1307.3574    978.46305     2725.905 
      10         0.01    1290.8284    978.46305     3283.076 
Loop time of 0.216498 on 1 procs for 10 steps with 64 atoms

Performance: 3.991 ns/day, 6.014 hours/ns, 46.190 timesteps/s
92.8% CPU use with 1 MPI tasks x no OpenMP threads

MPI task timing breakdown:
Section |  min time  |  avg time  |  max time  |%varavg| %total
---------------------------------------------------------------
Pair    | 0.21638    | 0.21638    | 0.21638    |   0.0 | 99.95
Neigh   | 0          | 0          | 0          |   0.0 |  0.00
Comm    | 3.3313e-05 | 3.3313e-05 | 3.3313e-05 |   0.0 |  0.02
Output  | 4.1709e-05 | 4.1709e-05 | 4.1709e-05 |   0.0 |  0.02
Modify  | 2.8467e-05 | 2.8467e-05 | 2.8467e-05 |   0.0 |  0.01
Other   |            | 1.124e-05  |            |       |  0.01

Nlocal:        64.0000 ave          64 max          64 min
Histogram: 1 0 0 0 0 0 0 0 0 0
Nghost:        886.000 ave         886 max         886 min
Histogram: 1 0 0 0 0 0 0 0 0 0
Neighs:         0.00000 ave           0 max           0 min
Histogram: 1 0 0 0 0 0 0 0 0 0
FullNghs:      5504.00 ave        5504 max        5504 min
Histogram: 1 0 0 0 0 0 0 0 0 0

Total # of neighbors = 5504
Ave neighs/atom = 86.000000
Neighbor list builds = 0
Dangerous builds = 0
Setting up Verlet run ...
  Unit style    : metal
  Current step  : 10
  Time step     : 0.001
Per MPI rank memory allocation (min/avg/max) = 3.089 | 3.089 | 3.089 Mbytes
Step Time Temp Volume Press 
      10         0.01    1290.8284    978.46305     3283.076 
      11        0.011    1272.7882    978.46305    3890.2084 
      12        0.012    1253.3048    978.46305    4546.9751 
      13        0.013    1232.4524    978.46305    5251.0096 
      14        0.014    1210.3115    978.46305    5999.3615 
      15        0.015    1186.9688    978.46305    6788.3064 
      16        0.016     1162.517    978.46305    7616.4224 
      17        0.017    1137.0543    978.46305    8480.8748 
      18        0.018    1110.6844    978.46305    9378.2105 
      19        0.019    1083.5158    978.46305    10305.083 
      20         0.02    1055.6617    978.46305    11257.344 
      21        0.021    1027.2392    978.46305    12232.236 
      22        0.022    998.36876    978.46305    13225.723 
      23        0.023    969.17364    978.46305    14234.136 
      24        0.024    939.77901    978.46305     15253.47 
      25        0.025    910.31121    978.46305    16278.242 
      26        0.026    880.89639    978.46305    17303.015 
      27        0.027     851.6602    978.46305    18325.295 
      28        0.028    822.72734    978.46305    19341.341 
      29        0.029    794.22022    978.46305    20347.053 
      30         0.03     766.2577    978.46305    21337.756 
      31        0.031    738.95411    978.46305    22309.736 
      32        0.032    712.41849    978.46305    23258.622 
      33        0.033    686.75392    978.46305    24181.659 
      34        0.034    662.05685    978.46305    25076.432 
      35        0.035    638.41596    978.46305    25939.359 
      36        0.036    615.91111    978.46305    26765.248 
      37        0.037     594.6126    978.46305    27550.083 
      38        0.038     574.5814    978.46305    28293.019 
      39        0.039     555.8689    978.46305    28992.142 
      40         0.04    538.51667    978.46305    29647.376 
      41        0.041    522.55612    978.46305    30256.778 
      42        0.042    508.00842    978.46305    30820.377 
      43        0.043    494.88447    978.46305    31335.625 
      44        0.044     483.1851    978.46305    31803.777 
      45        0.045    472.90173    978.46305    32225.393 
      46        0.046     464.0166    978.46305    32599.572 
      47        0.047    456.50301    978.46305    32926.688 
      48        0.048     450.3261    978.46305    33208.097 
      49        0.049    445.44336    978.46305    33444.775 
      50         0.05     441.8053    978.46305    33638.096 
      51        0.051    439.35618    978.46305    33790.037 
      52        0.052    438.03471    978.46305    33902.497 
      53        0.053    437.77484    978.46305    33975.293 
      54        0.054     438.5065    978.46305    34011.388 
      55        0.055    440.15613    978.46305    34014.511 
      56        0.056     442.6474    978.46305    33986.218 
      57        0.057    445.90193    978.46305    33927.696 
      58        0.058    449.84002    978.46305    33842.846 
      59        0.059    454.38149    978.46305    33734.439 
      60         0.06    459.44627    978.46305    33605.799 
      61        0.061    464.95491    978.46305     33459.99 
      62        0.062    470.82912    978.46305     33299.58 
      63        0.063    476.99219    978.46305    33126.584 
      64        0.064    483.36914    978.46305     32943.33 
      65        0.065    489.88742    978.46305    32752.034 
      66        0.066     496.4776    978.46305    32555.928 
      67        0.067    503.07346    978.46305    32356.729 
      68        0.068    509.61218    978.46305    32157.269 
      69        0.069    516.03472    978.46305    31959.852 
      70         0.07    522.28594    978.46305    31765.963 
      71        0.071    528.31484    978.46305    31576.983 
      72        0.072    534.07476    978.46305     31396.45 
      73        0.073    539.52328    978.46305    31225.444 
      74        0.074    544.62234    978.46305    31065.101 
      75        0.075    549.33857    978.46305    30916.012 
      76        0.076    553.64337    978.46305      30780.6 
      77        0.077    557.51278    978.46305    30660.104 
      78        0.078    560.92732    978.46305    30555.388 
      79        0.079    563.87187    978.46305    30466.185 
      80         0.08    566.33561    978.46305    30393.584 
      81        0.081     568.3119    978.46305    30338.378 
      82        0.082    569.79818    978.46305    30301.049 
      83        0.083    570.79606    978.46305    30281.332 
      84        0.084    571.31097    978.46305    30279.099 
      85        0.085    571.35171    978.46305    30292.521 
      86        0.086    570.93019    978.46305    30320.677 
      87        0.087    570.06175    978.46305    30364.789 
      88        0.088    568.76489    978.46305    30425.213 
      89        0.089    567.06069    978.46305    30501.385 
      90         0.09    564.97255    978.46305    30592.238 
      91        0.091    562.52592    978.46305    30697.511 
      92        0.092    559.74808    978.46305     30815.67 
      93        0.093    556.66796    978.46305    30945.694 
      94        0.094    553.31579    978.46305    31086.726 
      95        0.095    549.72284    978.46305    31237.742 
      96        0.096    545.92105    978.46305    31396.096 
      97        0.097    541.94263    978.46305    31560.926 
      98        0.098    537.82018    978.46305    31732.109 
      99        0.099    533.58635    978.46305     31907.46 
     100          0.1    529.27341    978.46305    32085.344 
Loop time of 1.87969 on 1 procs for 90 steps with 64 atoms

Performance: 4.137 ns/day, 5.802 hours/ns, 47.880 timesteps/s
99.8% CPU use with 1 MPI tasks x no OpenMP threads

MPI task timing breakdown:
Section |  min time  |  avg time  |  max time  |%varavg| %total
---------------------------------------------------------------
Pair    | 1.8786     | 1.8786     | 1.8786     |   0.0 | 99.94
Neigh   | 0.00020441 | 0.00020441 | 0.00020441 |   0.0 |  0.01
Comm    | 0.00029852 | 0.00029852 | 0.00029852 |   0.0 |  0.02
Output  | 0.00033042 | 0.00033042 | 0.00033042 |   0.0 |  0.02
Modify  | 0.00016588 | 0.00016588 | 0.00016588 |   0.0 |  0.01
Other   |            | 7.641e-05  |            |       |  0.00

Nlocal:        64.0000 ave          64 max          64 min
Histogram: 1 0 0 0 0 0 0 0 0 0
Nghost:        886.000 ave         886 max         886 min
Histogram: 1 0 0 0 0 0 0 0 0 0
Neighs:         0.00000 ave           0 max           0 min
Histogram: 1 0 0 0 0 0 0 0 0 0
FullNghs:      5958.00 ave        5958 max        5958 min
Histogram: 1 0 0 0 0 0 0 0 0 0

Total # of neighbors = 5958
Ave neighs/atom = 93.093750
Neighbor list builds = 1
Dangerous builds = 0
Setting up Verlet run ...
  Unit style    : metal
  Current step  : 100
  Time step     : 0.001
Per MPI rank memory allocation (min/avg/max) = 3.089 | 3.089 | 3.089 Mbytes
Step Time Temp Volume Press 
     100          0.1    529.27341    978.46305    32085.344 
     110         0.11    488.48077    978.46305    33814.037 
     120         0.12    468.84751    978.46305     34827.19 
     130         0.13    482.68442    978.46305    34673.452 
     140         0.14    524.80228    978.46305    33584.084 
     150         0.15    577.50157    978.46305    32200.846 
     160         0.16    624.15247    978.46305    31068.193 
     170         0.17     656.1406    978.46305    30496.564 
     180         0.18    670.29049    978.46305    30583.751 
     190         0.19    669.32313    978.46305    31175.614 
     200          0.2    658.68138    978.46305    32086.471 
     210         0.21    641.96294    978.46305     33059.31 
     220         0.22    629.53481    978.46305    33645.525 
     230         0.23    639.44339    978.46305    33340.384 
     240         0.24    675.50915    978.46305    32189.947 
     250         0.25    720.69939    978.46305    30694.833 
     260         0.26    755.96847    978.46305    29466.696 
     270         0.27    772.16298    978.46305    28898.906 
     280         0.28    771.72364    978.46305    28847.243 
     290         0.29    772.75773    978.46305    28611.125 
     300          0.3    796.79025    978.46305    27587.622 
     310         0.31    842.50094    978.46305    25894.725 
     320         0.32    879.85877    978.46305    24553.863 
     330         0.33    875.44664    978.46305    24586.556 
     340         0.34    821.32739    978.46305     26274.41 
     350         0.35    739.20804    978.46305    28991.083 
     360         0.36    664.95128    978.46305    31496.567 
     370         0.37    626.32821    978.46305    32787.059 
     380         0.38    624.45757    978.46305    32765.542 
     390         0.39     638.0527    978.46305    32085.261 
     400          0.4    646.36913    978.46305    31414.123 
     410         0.41    643.19681    978.46305    31067.884 
     420         0.42    636.09677    978.46305    30890.235 
     430         0.43    635.50561    978.46305    30626.788 
     440         0.44    641.67551    978.46305    30233.601 
     450         0.45    644.87847    978.46305    29895.267 
     460         0.46    641.10881    978.46305    29707.784 
     470         0.47    642.96487    978.46305    29280.029 
     480         0.48    664.83691    978.46305    28366.647 
     490         0.49    698.09354    978.46305    27278.942 
     500          0.5    715.82252    978.46305    26636.525 
     510         0.51    703.88967    978.46305     26844.88 
     520         0.52    673.31994    978.46305    27679.582 
     530         0.53    644.89569    978.46305    28470.207 
     540         0.54    637.63465    978.46305    28574.328 
     550         0.55    661.97921    978.46305    27710.491 
     560         0.56    708.24864    978.46305    26212.855 
     570         0.57      746.222    978.46305    25114.715 
     580         0.58    745.91132    978.46305    25307.209 
     590         0.59     704.7436    978.46305     26828.85 
     600          0.6    652.88441    978.46305     28744.06 
     610         0.61    627.72775    978.46305    29830.708 
     620         0.62    644.31483    978.46305    29590.717 
     630         0.63    687.39132    978.46305    28471.687 
     640         0.64    730.13113    978.46305    27222.164 
     650         0.65     757.3824    978.46305    26437.226 
     660         0.66    765.29778    978.46305    26375.243 
     670         0.67    753.92214    978.46305    27094.603 
     680         0.68    732.81147    978.46305    28203.354 
     690         0.69    720.98341    978.46305    29087.131 
     700          0.7     725.9639    978.46305    29590.252 
     710         0.71    735.86346    978.46305    29889.727 
     720         0.72     737.6898    978.46305    30307.139 
     730         0.73    730.99715    978.46305    30921.828 
     740         0.74    723.05002    978.46305    31613.277 
     750         0.75    715.11796    978.46305    32456.415 
     760         0.76    700.92701    978.46305    33476.758 
     770         0.77    678.71821    978.46305    34536.648 
     780         0.78    660.22789    978.46305    35217.935 
     790         0.79    664.47304    978.46305    35013.224 
     800          0.8    696.72368    978.46305    33860.247 
     810         0.81    737.53367    978.46305    32483.157 
     820         0.82    757.68917    978.46305    31899.594 
     830         0.83    741.52719    978.46305    32547.445 
     840         0.84    698.49262    978.46305    34014.781 
     850         0.85    664.49484    978.46305    35121.632 
     860         0.86    683.57208    978.46305    34646.653 
     870         0.87    756.91932    978.46305    32563.072 
     880         0.88    833.19274    978.46305    30260.008 
     890         0.89    862.74942    978.46305    29224.785 
     900          0.9    833.11946    978.46305    29953.985 
     910         0.91    768.17028    978.46305    31840.905 
     920         0.92    705.81815    978.46305    33792.362 
     930         0.93    669.24434    978.46305    35019.691 
     940         0.94    657.03192    978.46305    35386.723 
     950         0.95    657.35856    978.46305    35165.682 
     960         0.96    663.42916    978.46305    34645.647 
     970         0.97    671.33803    978.46305     34001.05 
     980         0.98    674.15047    978.46305    33435.247 
     990         0.99    667.36067    978.46305    33209.336 
    1000            1    654.44413    978.46305    33182.398 
Loop time of 18.6177 on 1 procs for 900 steps with 64 atoms

Performance: 4.177 ns/day, 5.746 hours/ns, 48.341 timesteps/s
100.0% CPU use with 1 MPI tasks x no OpenMP threads

MPI task timing breakdown:
Section |  min time  |  avg time  |  max time  |%varavg| %total
---------------------------------------------------------------
Pair    | 18.609     | 18.609     | 18.609     |   0.0 | 99.95
Neigh   | 0.0030363  | 0.0030363  | 0.0030363  |   0.0 |  0.02
Comm    | 0.0030489  | 0.0030489  | 0.0030489  |   0.0 |  0.02
Output  | 0.00041584 | 0.00041584 | 0.00041584 |   0.0 |  0.00
Modify  | 0.0016338  | 0.0016338  | 0.0016338  |   0.0 |  0.01
Other   |            | 0.0007049  |            |       |  0.00

Nlocal:        64.0000 ave          64 max          64 min
Histogram: 1 0 0 0 0 0 0 0 0 0
Nghost:        886.000 ave         886 max         886 min
Histogram: 1 0 0 0 0 0 0 0 0 0
Neighs:         0.00000 ave           0 max           0 min
Histogram: 1 0 0 0 0 0 0 0 0 0
FullNghs:      5926.00 ave        5926 max        5926 min
Histogram: 1 0 0 0 0 0 0 0 0 0

Total # of neighbors = 5926
Ave neighs/atom = 92.593750
Neighbor list builds = 15
Dangerous builds = 0
Setting up Verlet run ...
  Unit style    : metal
  Current step  : 1000
  Time step     : 0.001
Per MPI rank memory allocation (min/avg/max) = 3.089 | 3.089 | 3.089 Mbytes
Step Time Temp Volume Press 
    1000            1    654.44413    978.46305    33182.398 
    1100          1.1    785.43114    978.46305    21595.295 
    1200          1.2     557.3364    978.46305    22856.083 
    1300          1.3    545.70471    978.46305    27529.746 
    1400          1.4    723.04358    978.46305    26654.904 
    1500          1.5     657.1481    978.46305    31662.497 
    1600          1.6    741.53075    978.46305    31937.101 
    1700          1.7    766.80216    978.46305    30061.711 
    1800          1.8    687.61437    978.46305    25130.657 
    1900          1.9     649.7168    978.46305    23784.932 
    2000            2    663.80833    978.46305    28107.707 
    2100          2.1    717.52864    978.46305    29782.655 
    2200          2.2    650.85126    978.46305    32694.346 
    2300          2.3    724.38129    978.46305    29722.828 
    2400          2.4    656.27704    978.46305    30829.027 
    2500          2.5    607.52236    978.46305    28919.017 
    2600          2.6    648.41912    978.46305    21945.123 
    2700          2.7    546.78372    978.46305    26885.602 
    2800          2.8    716.14894    978.46305    28561.687 
    2900          2.9    703.41404    978.46305    33306.693 
    3000            3    747.80797    978.46305    29468.799 
    3100          3.1    685.19803    978.46305    29005.407 
    3200          3.2    554.10288    978.46305    26399.872 
    3300          3.3    664.29833    978.46305    21834.864 
    3400          3.4    635.11209    978.46305    28605.672 
    3500          3.5    642.01844    978.46305    35140.409 
    3600          3.6    802.77097    978.46305     28641.32 
    3700          3.7     616.3613    978.46305    32128.018 
    3800          3.8    619.97825    978.46305    28383.351 
    3900          3.9    664.71615    978.46305    25136.878 
    4000            4    771.58678    978.46305    26968.369 
    4100          4.1    754.52495    978.46305      35585.9 
    4200          4.2    812.71227    978.46305    32597.026 
    4300          4.3    737.41986    978.46305    28382.633 
    4400          4.4    758.23482    978.46305    24429.597 
    4500          4.5    660.03797    978.46305    27022.217 
    4600          4.6    628.76277    978.46305    30024.783 
    4700          4.7    726.24039    978.46305    30854.371 
    4800          4.8     773.3664    978.46305    38819.807 
    4900          4.9      867.223    978.46305    36861.908 
    5000            5    757.66392    978.46305    33255.816 
    5100          5.1    711.67642    978.46305    31181.292 
    5200          5.2     698.7445    978.46305    29170.416 
    5300          5.3    773.61821    978.46305    27431.543 
    5400          5.4     628.8021    978.46305    31448.336 
    5500          5.5    720.63504    978.46305    23894.342 
    5600          5.6    613.52837    978.46305    23949.047 
    5700          5.7    711.09943    978.46305    25550.948 
    5800          5.8    697.79833    978.46305    33047.392 
    5900          5.9    725.96654    978.46305    31372.832 
    6000            6    705.48919    978.46305    27445.919 
    6100          6.1    701.33638    978.46305    24895.185 
    6200          6.2    570.58592    978.46305    25743.349 
    6300          6.3     582.8662    978.46305    22555.859 
    6400          6.4    609.95381    978.46305    27201.338 
    6500          6.5    750.52926    978.46305    29351.225 
    6600          6.6    765.34758    978.46305    28899.811 
    6700          6.7     731.7508    978.46305    29604.525 
    6800          6.8    623.64854    978.46305    25149.529 
    6900          6.9    595.05796    978.46305    24199.755 
    7000            7    653.60219    978.46305    26972.226 
    7100          7.1    607.98195    978.46305    33904.861 
    7200          7.2    684.45077    978.46305    32091.917 
    7300          7.3     689.7298    978.46305    32039.445 
    7400          7.4      717.211    978.46305    29240.601 
    7500          7.5    701.42569    978.46305     23792.53 
    7600          7.6    572.45817    978.46305    27141.213 
    7700          7.7     698.9624    978.46305    25158.448 
    7800          7.8    682.17094    978.46305    30873.173 
    7900          7.9    689.02219    978.46305    33772.312 
    8000            8    795.46672    978.46305    29877.073 
    8100          8.1    691.03716    978.46305     30262.37 
    8200          8.2    660.62572    978.46305    32273.798 
    8300          8.3    680.43509    978.46305    28918.557 
    8400          8.4    575.02213    978.46305     28937.27 
    8500          8.5    637.21582    978.46305    27158.172 
    8600          8.6    683.93586    978.46305    28889.483 
    8700          8.7    781.58603    978.46305    31633.012 
    8800          8.8    698.03199    978.46305    34174.192 
    8900          8.9    755.91824    978.46305    28066.609 
    9000            9    631.82015    978.46305    27739.138 
    9100          9.1    610.45236    978.46305    30150.558 
    9200          9.2     767.0176    978.46305    25465.959 
    9300          9.3     662.4964    978.46305    31169.168 
    9400          9.4    776.42238    978.46305    34010.147 
    9500          9.5    685.48992    978.46305    38781.696 
    9600          9.6    766.29002    978.46305    27826.683 
    9700          9.7    620.30416    978.46305    29378.528 
    9800          9.8     663.6722    978.46305    29725.779 
    9900          9.9    682.60203    978.46305    30663.323 
   10000           10    753.65202    978.46305    25830.977 
Loop time of 197.644 on 1 procs for 9000 steps with 64 atoms

Performance: 3.934 ns/day, 6.100 hours/ns, 45.536 timesteps/s
100.0% CPU use with 1 MPI tasks x no OpenMP threads

MPI task timing breakdown:
Section |  min time  |  avg time  |  max time  |%varavg| %total
---------------------------------------------------------------
Pair    | 197.55     | 197.55     | 197.55     |   0.0 | 99.95
Neigh   | 0.033614   | 0.033614   | 0.033614   |   0.0 |  0.02
Comm    | 0.032654   | 0.032654   | 0.032654   |   0.0 |  0.02
Output  | 0.00056772 | 0.00056772 | 0.00056772 |   0.0 |  0.00
Modify  | 0.015952   | 0.015952   | 0.015952   |   0.0 |  0.01
Other   |            | 0.007182   |            |       |  0.00

Nlocal:        64.0000 ave          64 max          64 min
Histogram: 1 0 0 0 0 0 0 0 0 0
Nghost:        886.000 ave         886 max         886 min
Histogram: 1 0 0 0 0 0 0 0 0 0
Neighs:         0.00000 ave           0 max           0 min
Histogram: 1 0 0 0 0 0 0 0 0 0
FullNghs:      5940.00 ave        5940 max        5940 min
Histogram: 1 0 0 0 0 0 0 0 0 0

Total # of neighbors = 5940
Ave neighs/atom = 92.812500
Neighbor list builds = 159
Dangerous builds = 0
System init for write_data ...
Total wall time: 0:03:38
