ITEM: TIMESTEP
10000
ITEM: NUMBER OF ATOMS
64
ITEM: BOX BOUNDS xy xz yz pp pp pp
0.0000000000000000e+00 1.0640000000001363e+01 0.0000000000000000e+00
0.0000000000000000e+00 9.2145102962676049e+00 0.0000000000000000e+00
0.0000000000000000e+00 9.9800000000000004e+00 0.0000000000000000e+00
ITEM: ATOMS id type x y z
1 1 1.4389 5.13968 3.82245
2 1 1.3328 5.26208 8.81837
3 1 10.7545 7.56739 3.91553
4 1 0.0378117 7.66572 8.76979
5 1 6.73442 0.956285 3.67727
6 1 6.56708 0.91665 8.66986
7 1 5.49448 3.10982 4.10847
8 1 5.23485 3.55685 8.58784
9 1 1.47431 0.446286 3.56532
10 1 1.22621 0.858478 8.7951
11 1 0.0290475 2.8953 3.81788
12 1 -0.026992 3.09305 8.76685
13 1 4.10244 0.480006 3.61912
14 1 4.07536 1.04343 9.14134
15 1 2.80688 2.6991 4.21643
16 1 2.58298 3.19314 8.63466
17 1 6.46609 5.38959 3.46275
18 1 6.6041 5.73945 8.28627
19 1 5.46358 7.51979 3.80678
20 1 5.18006 7.92282 8.46984
21 1 9.13092 5.55273 3.86892
22 1 9.12673 5.31771 8.50643
23 1 8.07672 7.85215 3.93184
24 1 7.91997 7.70401 8.86656
25 1 3.9532 4.9774 3.15748
26 1 3.79568 5.90078 8.85766
27 1 2.77864 7.33826 3.87787
28 1 2.74354 8.24977 8.5002
29 1 9.55672 0.675325 3.80312
30 1 9.25342 0.893638 8.91707
31 1 8.01292 3.18866 3.93551
32 1 8.18639 2.97274 9.11252
33 1 5.48755 1.46256 1.58079
34 1 5.2343 1.38396 6.24068
35 1 4.12024 3.6855 0.77075
36 1 3.97813 3.70157 6.56771
37 1 2.65691 5.97542 1.38907
38 1 2.39478 6.52728 6.73405
39 1 1.26494 8.29446 0.827179
40 1 1.17508 8.64287 5.93031
41 1 -0.0045754 1.55298 1.13182
42 1 10.5829 1.55515 6.13257
43 1 2.70675 1.34437 1.44427
44 1 2.49648 1.45881 6.77234
45 1 1.45853 3.66048 1.29043
46 1 1.32368 3.8562 6.20151
47 1 0.156967 6.13571 1.11523
48 1 10.6351 6.03841 6.21333
49 1 9.64884 4.07558 1.51614
50 1 9.25041 3.8581 6.19884
51 1 8.10927 6.03519 0.91288
52 1 8.05918 6.26754 6.03597
53 1 6.57859 8.41323 1.36743
54 1 6.55931 8.38409 5.99314
55 1 9.08288 8.65496 1.21103
56 1 9.29416 8.54717 6.58555
57 1 7.94727 1.59452 1.49689
58 1 7.82959 1.35263 6.01779
59 1 6.59407 3.8287 1.004
60 1 6.7733 3.70403 6.40244
61 1 5.5034 6.17217 0.844296
62 1 5.09881 5.89039 6.02431
63 1 3.88356 8.27076 1.09607
64 1 3.8458 8.46144 6.02411
