LAMMPS (29 Sep 2021 - Update 1)
Reading data file ...
  triclinic box = (0.0000000 0.0000000 0.0000000) to (10.600000 9.1798693 10.020000) with tilt (0.0000000 0.0000000 0.0000000)
  1 by 1 by 1 MPI processor grid
  reading atoms ...
  64 atoms
  read_data CPU = 0.001 seconds
Neighbor list info ...
  update every 1 steps, delay 0 steps, check yes
  max neighbors/atom: 2000, page size: 100000
  master list distance cutoff = 7
  ghost atom cutoff = 7
  binsize = 3.5, bins = 4 3 3
  1 neighbor lists, perpetual/occasional/extra = 1 0 0
  (1) pair mlip, perpetual
      attributes: full, newton on
      pair build: full/bin/atomonly
      stencil: full/bin/3d
      bin: standard
Setting up Verlet run ...
  Unit style    : metal
  Current step  : 0
  Time step     : 0.001
Per MPI rank memory allocation (min/avg/max) = 3.089 | 3.089 | 3.089 Mbytes
Step Time Temp Volume Press 
       0            0         1380    975.01228    4480.5143 
       1        0.001    1379.1375    975.01228    4509.5169 
       2        0.002    1376.5501    975.01228    4596.5143 
       3        0.003    1372.2419    975.01228    4741.3245 
       4        0.004    1366.2234    975.01228    4943.5604 
       5        0.005    1358.5126    975.01228    5201.1593 
       6        0.006    1349.1357    975.01228    5509.6203 
       7        0.007    1338.1267    975.01228    5866.7334 
       8        0.008    1325.5265    975.01228    6272.0225 
       9        0.009    1311.3822    975.01228    6725.8241 
      10         0.01    1295.7477    975.01228    7227.2246 
Loop time of 0.214665 on 1 procs for 10 steps with 64 atoms

Performance: 4.025 ns/day, 5.963 hours/ns, 46.584 timesteps/s
93.7% CPU use with 1 MPI tasks x no OpenMP threads

MPI task timing breakdown:
Section |  min time  |  avg time  |  max time  |%varavg| %total
---------------------------------------------------------------
Pair    | 0.21455    | 0.21455    | 0.21455    |   0.0 | 99.95
Neigh   | 0          | 0          | 0          |   0.0 |  0.00
Comm    | 3.4368e-05 | 3.4368e-05 | 3.4368e-05 |   0.0 |  0.02
Output  | 4.3184e-05 | 4.3184e-05 | 4.3184e-05 |   0.0 |  0.02
Modify  | 2.6132e-05 | 2.6132e-05 | 2.6132e-05 |   0.0 |  0.01
Other   |            | 1.041e-05  |            |       |  0.00

Nlocal:        64.0000 ave          64 max          64 min
Histogram: 1 0 0 0 0 0 0 0 0 0
Nghost:        886.000 ave         886 max         886 min
Histogram: 1 0 0 0 0 0 0 0 0 0
Neighs:         0.00000 ave           0 max           0 min
Histogram: 1 0 0 0 0 0 0 0 0 0
FullNghs:      5504.00 ave        5504 max        5504 min
Histogram: 1 0 0 0 0 0 0 0 0 0

Total # of neighbors = 5504
Ave neighs/atom = 86.000000
Neighbor list builds = 0
Dangerous builds = 0
Setting up Verlet run ...
  Unit style    : metal
  Current step  : 10
  Time step     : 0.001
Per MPI rank memory allocation (min/avg/max) = 3.089 | 3.089 | 3.089 Mbytes
Step Time Temp Volume Press 
      10         0.01    1295.7477    975.01228    7227.2246 
      11        0.011    1278.6831    975.01228    7775.6049 
      12        0.012    1260.2551    975.01228    8369.2109 
      13        0.013    1240.5366    975.01228    9006.2634 
      14        0.014    1219.6071    975.01228    9684.1524 
      15        0.015    1197.5519    975.01228    10399.973 
      16        0.016    1174.4621    975.01228    11152.177 
      17        0.017    1150.4341    975.01228    11938.291 
      18        0.018    1125.5689    975.01228    12755.301 
      19        0.019    1099.9722    975.01228    13599.993 
      20         0.02    1073.7537    975.01228    14468.307 
      21        0.021     1047.026    975.01228    15356.945 
      22        0.022    1019.9046    975.01228    16262.781 
      23        0.023    992.50677    975.01228    17181.979 
      24        0.024    964.95068    975.01228    18110.813 
      25        0.025    937.35471    975.01228    19044.673 
      26        0.026     909.8363    975.01228    19979.145 
      27        0.027    882.51149    975.01228    20910.001 
      28        0.028    855.49418    975.01228    21834.456 
      29        0.029    828.89535    975.01228    22749.302 
      30         0.03    802.82194    975.01228    23650.495 
      31        0.031    777.37602    975.01228    24534.599 
      32        0.032     752.6541    975.01228    25399.231 
      33        0.033    728.74638    975.01228    26241.566 
      34        0.034     705.7359    975.01228    27058.348 
      35        0.035    683.69795    975.01228    27846.804 
      36        0.036    662.69937    975.01228    28603.872 
      37        0.037    642.79828    975.01228    29328.577 
      38        0.038    624.04388    975.01228    30018.639 
      39        0.039    606.47584    975.01228    30671.745 
      40         0.04    590.12442    975.01228    31287.514 
      41        0.041    575.01039    975.01228    31864.609 
      42        0.042    561.14517    975.01228    32403.347 
      43        0.043    548.53106    975.01228    32902.339 
      44        0.044    537.16106    975.01228    33360.673 
      45        0.045    527.01924    975.01228    33777.857 
      46        0.046    518.08155    975.01228    34155.668 
      47        0.047     510.3164    975.01228    34494.839 
      48        0.048    503.68494    975.01228     34795.97 
      49        0.049    498.14165    975.01228    35060.103 
      50         0.05    493.63609    975.01228     35283.56 
      51        0.051    490.11231    975.01228    35472.629 
      52        0.052    487.50881    975.01228    35630.353 
      53        0.053    485.76046    975.01228    35758.226 
      54        0.054    484.79891    975.01228     35856.68 
      55        0.055     484.5534    975.01228    35928.519 
      56        0.056    484.95159    975.01228     35974.86 
      57        0.057    485.92036    975.01228    35999.599 
      58        0.058    487.38653    975.01228    36005.198 
      59        0.059    489.27733    975.01228    35994.396 
      60         0.06    491.52109    975.01228    35966.365 
      61        0.061    494.04773    975.01228    35926.369 
      62        0.062    496.78908    975.01228    35876.263 
      63        0.063     499.6797    975.01228    35818.992 
      64        0.064    502.65719    975.01228    35755.779 
      65        0.065    505.66247    975.01228    35688.871 
      66        0.066    508.63961    975.01228    35615.156 
      67        0.067    511.53673    975.01228    35540.996 
      68        0.068    514.30695    975.01228    35468.753 
      69        0.069    516.90824    975.01228    35398.494 
      70         0.07     519.3034    975.01228    35332.383 
      71        0.071    521.45985    975.01228    35271.436 
      72        0.072    523.34996    975.01228    35217.089 
      73        0.073    524.95127    975.01228    35170.183 
      74        0.074    526.24629    975.01228    35131.101 
      75        0.075     527.2223    975.01228    35100.028 
      76        0.076    527.87113    975.01228     35078.06 
      77        0.077    528.18916    975.01228    35065.257 
      78        0.078    528.17724    975.01228    35061.235 
      79        0.079    527.84037    975.01228    35065.231 
      80         0.08    527.18736    975.01228    35077.552 
      81        0.081    526.23079    975.01228    35099.268 
      82        0.082    524.98658    975.01228    35129.927 
      83        0.083    523.47349    975.01228    35169.595 
      84        0.084    521.71268    975.01228     35218.06 
      85        0.085    519.72701    975.01228    35272.639 
      86        0.086     517.5408    975.01228    35334.796 
      87        0.087    515.17968    975.01228    35404.079 
      88        0.088    512.67006    975.01228    35479.329 
      89        0.089    510.03848    975.01228    35559.796 
      90         0.09    507.31123    975.01228    35645.273 
      91        0.091     504.5142    975.01228    35733.893 
      92        0.092    501.67266    975.01228    35824.738 
      93        0.093    498.81075    975.01228    35918.025 
      94        0.094    495.95119    975.01228    36014.043 
      95        0.095    493.11537    975.01228    36111.528 
      96        0.096    490.32335    975.01228    36208.505 
      97        0.097    487.59356    975.01228    36306.161 
      98        0.098     484.9427    975.01228    36403.472 
      99        0.099    482.38578    975.01228    36500.338 
     100          0.1    479.93601    975.01228    36596.296 
Loop time of 1.87375 on 1 procs for 90 steps with 64 atoms

Performance: 4.150 ns/day, 5.783 hours/ns, 48.032 timesteps/s
100.0% CPU use with 1 MPI tasks x no OpenMP threads

MPI task timing breakdown:
Section |  min time  |  avg time  |  max time  |%varavg| %total
---------------------------------------------------------------
Pair    | 1.8727     | 1.8727     | 1.8727     |   0.0 | 99.95
Neigh   | 0.00020055 | 0.00020055 | 0.00020055 |   0.0 |  0.01
Comm    | 0.00029026 | 0.00029026 | 0.00029026 |   0.0 |  0.02
Output  | 0.00031236 | 0.00031236 | 0.00031236 |   0.0 |  0.02
Modify  | 0.00015116 | 0.00015116 | 0.00015116 |   0.0 |  0.01
Other   |            | 7.038e-05  |            |       |  0.00

Nlocal:        64.0000 ave          64 max          64 min
Histogram: 1 0 0 0 0 0 0 0 0 0
Nghost:        886.000 ave         886 max         886 min
Histogram: 1 0 0 0 0 0 0 0 0 0
Neighs:         0.00000 ave           0 max           0 min
Histogram: 1 0 0 0 0 0 0 0 0 0
FullNghs:      5966.00 ave        5966 max        5966 min
Histogram: 1 0 0 0 0 0 0 0 0 0

Total # of neighbors = 5966
Ave neighs/atom = 93.218750
Neighbor list builds = 1
Dangerous builds = 0
Setting up Verlet run ...
  Unit style    : metal
  Current step  : 100
  Time step     : 0.001
Per MPI rank memory allocation (min/avg/max) = 3.089 | 3.089 | 3.089 Mbytes
Step Time Temp Volume Press 
     100          0.1    479.93601    975.01228    36596.296 
     110         0.11    463.31674    975.01228    37330.016 
     120         0.12    464.70113    975.01228    37380.011 
     130         0.13     485.5263    975.01228    36698.001 
     140         0.14    519.64643    975.01228    35520.903 
     150         0.15     557.6963    975.01228    34275.801 
     160         0.16    596.97379    975.01228    33120.677 
     170         0.17    637.55381    975.01228    32160.982 
     180         0.18     672.5571    975.01228    31517.477 
     190         0.19     689.8223    975.01228    31530.518 
     200          0.2     683.8227    975.01228    32284.623 
     210         0.21    664.90509    975.01228    33294.767 
     220         0.22    656.57833    975.01228    33814.966 
     230         0.23    675.34792    975.01228    33509.287 
     240         0.24    708.56611    975.01228    32862.414 
     250         0.25    727.03475    975.01228    32740.874 
     260         0.26    721.85486    975.01228     33361.89 
     270         0.27    709.90707    975.01228    34252.708 
     280         0.28    707.41969    975.01228    34900.599 
     290         0.29    714.55093    975.01228    35271.672 
     300          0.3    720.10766    975.01228    35650.943 
     310         0.31    711.52496    975.01228    36420.729 
     320         0.32    683.34416    975.01228    37762.465 
     330         0.33    642.28666    975.01228    39465.531 
     340         0.34    608.00141    975.01228    40926.368 
     350         0.35    606.12182    975.01228    41310.212 
     360         0.36    644.39652    975.01228    40485.414 
     370         0.37    697.07619    975.01228    39222.979 
     380         0.38    732.88749    975.01228    38406.841 
     390         0.39    744.04671    975.01228    38409.177 
     400          0.4    738.18908    975.01228    38951.629 
     410         0.41     724.4172    975.01228      39759.3 
     420         0.42    714.81595    975.01228    40260.349 
     430         0.43    725.75433    975.01228    39876.764 
     440         0.44    769.43947    975.01228     38358.48 
     450         0.45    834.85148    975.01228    36203.611 
     460         0.46     883.3334    975.01228    34548.538 
     470         0.47    885.38013    975.01228    34086.204 
     480         0.48    854.27052    975.01228    34436.888 
     490         0.49    828.93294    975.01228    34596.367 
     500          0.5    824.31569    975.01228    34163.406 
     510         0.51    822.59575    975.01228    33592.131 
     520         0.52    806.32162    975.01228    33329.374 
     530         0.53    768.33863    975.01228    33700.132 
     540         0.54    709.57366    975.01228     34735.59 
     550         0.55    646.15842    975.01228    36019.515 
     560         0.56    600.37623    975.01228    36830.395 
     570         0.57    583.62213    975.01228    36625.704 
     580         0.58     595.3726    975.01228    35436.514 
     590         0.59    629.33363    975.01228    33519.008 
     600          0.6    675.19817    975.01228    31290.012 
     610         0.61    717.85718    975.01228     29226.22 
     620         0.62     741.4179    975.01228    27853.567 
     630         0.63     739.5483    975.01228    27396.847 
     640         0.64    720.73776    975.01228    27687.549 
     650         0.65    698.24648    975.01228    28352.318 
     660         0.66    675.29865    975.01228    29142.285 
     670         0.67    650.88842    975.01228    29950.451 
     680         0.68    637.79895    975.01228    30342.355 
     690         0.69    648.99105    975.01228    30091.471 
     700          0.7    667.97384    975.01228    29714.289 
     710         0.71    658.72034    975.01228    30167.714 
     720         0.72    611.10908    975.01228     31677.72 
     730         0.73    560.49219    975.01228    33221.905 
     740         0.74    547.82246    975.01228    33679.339 
     750         0.75    575.79673    975.01228    32999.192 
     760         0.76     614.4632    975.01228    32068.687 
     770         0.77    632.99406    975.01228    31830.323 
     780         0.78    625.58868    975.01228    32457.015 
     790         0.79    611.68589    975.01228    33455.847 
     800          0.8    615.51481    975.01228    34096.519 
     810         0.81    647.03581    975.01228    33961.109 
     820         0.82    696.40993    975.01228    33176.392 
     830         0.83    745.32087    975.01228    32157.825 
     840         0.84    784.07274    975.01228    31310.548 
     850         0.85     811.4425    975.01228    30847.567 
     860         0.86    824.56356    975.01228    30927.319 
     870         0.87    816.27832    975.01228    31652.093 
     880         0.88    781.62921    975.01228    33018.591 
     890         0.89    730.66643    975.01228    34695.098 
     900          0.9    689.40547    975.01228    35944.354 
     910         0.91    681.85016    975.01228    36087.607 
     920         0.92    711.28611    975.01228    34971.124 
     930         0.93    756.54829    975.01228    33342.262 
     940         0.94    788.74141    975.01228     32259.71 
     950         0.95    789.72961    975.01228    32270.174 
     960         0.96    757.91544    975.01228    33439.127 
     970         0.97    704.80163    975.01228    35331.953 
     980         0.98    649.23281    975.01228    37137.755 
     990         0.99    613.30738    975.01228    38122.871 
    1000            1    613.83473    975.01228    37830.897 
Loop time of 18.6534 on 1 procs for 900 steps with 64 atoms

Performance: 4.169 ns/day, 5.757 hours/ns, 48.249 timesteps/s
100.0% CPU use with 1 MPI tasks x no OpenMP threads

MPI task timing breakdown:
Section |  min time  |  avg time  |  max time  |%varavg| %total
---------------------------------------------------------------
Pair    | 18.645     | 18.645     | 18.645     |   0.0 | 99.95
Neigh   | 0.003186   | 0.003186   | 0.003186   |   0.0 |  0.02
Comm    | 0.0029207  | 0.0029207  | 0.0029207  |   0.0 |  0.02
Output  | 0.00039435 | 0.00039435 | 0.00039435 |   0.0 |  0.00
Modify  | 0.0014809  | 0.0014809  | 0.0014809  |   0.0 |  0.01
Other   |            | 0.000668   |            |       |  0.00

Nlocal:        64.0000 ave          64 max          64 min
Histogram: 1 0 0 0 0 0 0 0 0 0
Nghost:        886.000 ave         886 max         886 min
Histogram: 1 0 0 0 0 0 0 0 0 0
Neighs:         0.00000 ave           0 max           0 min
Histogram: 1 0 0 0 0 0 0 0 0 0
FullNghs:      5948.00 ave        5948 max        5948 min
Histogram: 1 0 0 0 0 0 0 0 0 0

Total # of neighbors = 5948
Ave neighs/atom = 92.937500
Neighbor list builds = 16
Dangerous builds = 0
Setting up Verlet run ...
  Unit style    : metal
  Current step  : 1000
  Time step     : 0.001
Per MPI rank memory allocation (min/avg/max) = 3.089 | 3.089 | 3.089 Mbytes
Step Time Temp Volume Press 
    1000            1    613.83473    975.01228    37830.897 
    1100          1.1    712.30087    975.01228    32832.762 
    1200          1.2    694.76823    975.01228    32593.846 
    1300          1.3    670.90249    975.01228    29678.463 
    1400          1.4    551.52922    975.01228    32136.516 
    1500          1.5    675.76185    975.01228    31945.643 
    1600          1.6    699.83309    975.01228    36127.688 
    1700          1.7    641.35808    975.01228    37558.817 
    1800          1.8    726.90295    975.01228    32014.828 
    1900          1.9    579.77126    975.01228    32026.434 
    2000            2    667.45493    975.01228    28875.812 
    2100          2.1     710.7135    975.01228    34352.719 
    2200          2.2    762.35828    975.01228    37154.085 
    2300          2.3    689.15355    975.01228    36905.678 
    2400          2.4    642.34805    975.01228    35873.357 
    2500          2.5    593.53384    975.01228    33709.955 
    2600          2.6    624.77837    975.01228    25779.163 
    2700          2.7     538.9102    975.01228    26901.416 
    2800          2.8    699.10976    975.01228    25923.874 
    2900          2.9    628.20679    975.01228    35933.009 
    3000            3    669.92552    975.01228    37168.768 
    3100          3.1    692.73783    975.01228    38171.272 
    3200          3.2     782.6617    975.01228     33682.97 
    3300          3.3    561.04118    975.01228     34649.54 
    3400          3.4    637.03358    975.01228    30888.502 
    3500          3.5    818.32818    975.01228    30720.313 
    3600          3.6    670.60518    975.01228    34784.408 
    3700          3.7     680.2166    975.01228    33174.038 
    3800          3.8    675.86446    975.01228    34668.571 
    3900          3.9    690.42597    975.01228    33269.534 
    4000            4    672.51497    975.01228    30181.648 
    4100          4.1    709.76247    975.01228    29561.209 
    4200          4.2    795.68034    975.01228    30552.876 
    4300          4.3    764.42489    975.01228    35808.505 
    4400          4.4    748.78821    975.01228    42098.819 
    4500          4.5    792.38295    975.01228    34378.751 
    4600          4.6    725.36797    975.01228    28882.692 
    4700          4.7    595.26002    975.01228    33286.269 
    4800          4.8    728.56355    975.01228     31431.51 
    4900          4.9    751.26937    975.01228     36197.29 
    5000            5    791.68776    975.01228    36085.385 
    5100          5.1    694.85738    975.01228    31114.997 
    5200          5.2    685.96827    975.01228     25734.16 
    5300          5.3    586.76815    975.01228    32906.066 
    5400          5.4    686.67036    975.01228    35354.661 
    5500          5.5    724.99221    975.01228    34025.817 
    5600          5.6    709.82674    975.01228    33370.263 
    5700          5.7    616.70584    975.01228    33098.478 
    5800          5.8    604.06811    975.01228    29327.492 
    5900          5.9    648.88352    975.01228    28907.092 
    6000            6    661.10828    975.01228    37227.167 
    6100          6.1    820.57855    975.01228    35779.434 
    6200          6.2    675.96569    975.01228    38913.979 
    6300          6.3    744.77532    975.01228    30449.285 
    6400          6.4    634.03966    975.01228    31449.839 
    6500          6.5    663.77138    975.01228        32046 
    6600          6.6    720.90726    975.01228    31483.906 
    6700          6.7    666.65604    975.01228    32637.467 
    6800          6.8     733.4608    975.01228    31228.865 
    6900          6.9    802.03384    975.01228    35772.947 
    7000            7    832.62126    975.01228    37912.673 
    7100          7.1    728.74913    975.01228    36541.644 
    7200          7.2     665.5588    975.01228    30920.488 
    7300          7.3    611.14251    975.01228     31025.08 
    7400          7.4    674.42118    975.01228    31073.511 
    7500          7.5    697.42661    975.01228    32524.066 
    7600          7.6    744.71346    975.01228    42031.095 
    7700          7.7    814.50922    975.01228    40290.837 
    7800          7.8    761.77464    975.01228    36055.093 
    7900          7.9    648.57993    975.01228     35890.92 
    8000            8    672.87776    975.01228    32313.429 
    8100          8.1     611.5311    975.01228    33692.337 
    8200          8.2    791.44009    975.01228    28634.421 
    8300          8.3    744.92907    975.01228    34124.417 
    8400          8.4    867.54151    975.01228    38406.049 
    8500          8.5    750.23838    975.01228    43278.444 
    8600          8.6    772.92856    975.01228    33463.345 
    8700          8.7    751.54032    975.01228    29271.573 
    8800          8.8    603.43343    975.01228    33602.743 
    8900          8.9    739.63258    975.01228    31008.208 
    9000            9    746.30785    975.01228    37257.397 
    9100          9.1    708.35239    975.01228    44067.486 
    9200          9.2    698.41389    975.01228    38756.075 
    9300          9.3    681.46135    975.01228    30634.717 
    9400          9.4    672.22081    975.01228    30436.554 
    9500          9.5    631.50636    975.01228    34124.651 
    9600          9.6    732.28824    975.01228    34461.735 
    9700          9.7    771.38117    975.01228    34464.386 
    9800          9.8    669.71554    975.01228    31776.382 
    9900          9.9    605.77882    975.01228    29304.786 
   10000           10    659.64276    975.01228    28634.067 
Loop time of 196.943 on 1 procs for 9000 steps with 64 atoms

Performance: 3.948 ns/day, 6.078 hours/ns, 45.699 timesteps/s
100.0% CPU use with 1 MPI tasks x no OpenMP threads

MPI task timing breakdown:
Section |  min time  |  avg time  |  max time  |%varavg| %total
---------------------------------------------------------------
Pair    | 196.85     | 196.85     | 196.85     |   0.0 | 99.96
Neigh   | 0.033639   | 0.033639   | 0.033639   |   0.0 |  0.02
Comm    | 0.031766   | 0.031766   | 0.031766   |   0.0 |  0.02
Output  | 0.00053095 | 0.00053095 | 0.00053095 |   0.0 |  0.00
Modify  | 0.015426   | 0.015426   | 0.015426   |   0.0 |  0.01
Other   |            | 0.006871   |            |       |  0.00

Nlocal:        64.0000 ave          64 max          64 min
Histogram: 1 0 0 0 0 0 0 0 0 0
Nghost:        886.000 ave         886 max         886 min
Histogram: 1 0 0 0 0 0 0 0 0 0
Neighs:         0.00000 ave           0 max           0 min
Histogram: 1 0 0 0 0 0 0 0 0 0
FullNghs:      5984.00 ave        5984 max        5984 min
Histogram: 1 0 0 0 0 0 0 0 0 0

Total # of neighbors = 5984
Ave neighs/atom = 93.500000
Neighbor list builds = 159
Dangerous builds = 0
System init for write_data ...
Total wall time: 0:03:37
