LAMMPS data file via write_data, version 29 Sep 2021, timestep = 10000

64 atoms
1 atom types

0 10.600000000000822 xlo xhi
0 9.179869280115762 ylo yhi
0 10.019999999999998 zlo zhi
0 0 0 xy xz yz

Masses

1 65.38

Atoms # atomic

1 1 1.3198639780538297 5.28241714128115 3.786918604742556 0 0 0
2 1 1.374413115723717 5.069971796420975 8.577028231195152 0 0 0
3 1 0.22701056251325238 7.433999753788258 3.442757879097844 0 0 0
4 1 0.001854896192280286 7.516080205791775 8.503376849575302 0 0 0
5 1 6.544316872635282 0.8684627462560838 3.632952083240871 0 0 0
6 1 6.790661331665899 0.728664302344533 8.613613508975554 0 0 0
7 1 5.467117199570824 3.3482337612836304 3.698423062477013 0 0 0
8 1 5.487686730200341 2.962308906402903 8.792959312182587 0 0 0
9 1 1.437880475549724 0.8931092146863736 4.152951880071954 0 0 0
10 1 1.2415816113621845 0.8344463636257105 9.142800938523761 0 0 0
11 1 10.40627301149378 2.981372206326289 3.4918358730345807 -1 0 0
12 1 10.430413563829225 3.0845593810071636 8.806110362994048 -1 0 0
13 1 4.081695838609766 0.7859165215340781 3.610345351322978 0 0 0
14 1 3.75214285094371 0.6829280552326396 8.54084695380903 0 0 0
15 1 2.557193334998641 2.923507791062434 3.7211855364060105 0 0 0
16 1 2.84279786344053 2.852222473068735 8.996595823850313 0 0 0
17 1 6.411508975209243 5.640544175951486 4.153795030918131 0 0 0
18 1 6.68117422132536 5.222522384806762 8.784886446450422 0 0 0
19 1 5.088915636741098 7.752204441708702 3.425002521389494 0 0 0
20 1 5.562836331193427 7.6926080248937865 8.504342981510208 0 0 0
21 1 9.258475051974512 5.322643992936083 3.9516434207015347 0 0 0
22 1 9.3383528434942 5.434734786610789 9.106435241481138 0 0 0
23 1 7.923570243756234 7.6135034744770715 3.8918829691104397 0 0 0
24 1 7.964055423371653 7.566625231544066 8.983890802501449 0 0 0
25 1 3.8802909240885093 5.429265357607538 3.896353006228239 0 0 0
26 1 4.0812655898707675 5.366518632326886 9.167199536906589 0 0 0
27 1 2.6107605770900655 7.874105146690427 3.7626351669024998 0 0 0
28 1 2.5260422860527867 7.465416030621973 8.831542666418686 0 0 0
29 1 9.499586177218365 0.5749477519710176 3.6607854778607347 0 0 0
30 1 9.437851962495957 0.7685536893196958 8.952158714735697 0 0 0
31 1 8.0110864247313 3.079718832438028 3.541571499128128 0 0 0
32 1 8.051579599023059 3.1434722880638004 8.671972879326214 0 0 0
33 1 5.307774832389323 1.4758069287768711 1.14760027791278 0 0 0
34 1 5.231558702222258 1.5899895758761855 6.317104375005051 0 0 0
35 1 3.7523947759747225 3.75493340289452 1.2855438476503276 0 0 0
36 1 4.027618209389803 3.889645940534034 6.112913178953851 0 0 0
37 1 2.6297589100861667 6.0865318938953346 0.8643962450139724 0 0 0
38 1 2.6909822267123915 6.259368495900575 5.977194812368659 0 0 0
39 1 1.4161094354528132 8.312280690327686 1.3075239316116334 0 0 0
40 1 1.4004101645245506 8.585876912165046 6.540241821442825 0 0 0
41 1 10.5489811418928 1.760526012753326 1.128717685795239 -1 0 0
42 1 10.58280607323759 1.699587299292397 6.2905212177075445 -1 0 0
43 1 2.595534451851642 1.3586134326007007 1.400999594055701 0 0 0
44 1 2.8660573918326313 1.644896120262952 5.976830725604767 0 0 0
45 1 1.1380779585969858 3.9880048386138323 1.3326939269921483 0 0 0
46 1 1.341823602910851 3.8491176390205153 6.2906056567621755 0 0 0
47 1 10.587324389977763 6.189970424587986 1.052489080499721 -1 0 0
48 1 10.59559184770911 6.104276706619964 6.044393112788661 -1 0 0
49 1 8.990607765927987 3.8705201455291602 1.4400938696124808 0 0 0
50 1 9.29598798293598 3.8767074949349665 6.391047439406285 0 0 0
51 1 7.55458743980329 6.087304279699951 1.8480033273416192 0 0 0
52 1 8.115721723161617 6.168779727301205 6.53674876788502 0 0 0
53 1 6.454888609076124 8.48570072979669 1.199105386675563 0 0 0
54 1 6.5738091641882574 8.543776770589728 6.019252994919838 0 0 0
55 1 9.440902923403609 8.451215501263475 1.2044463640062082 0 0 0
56 1 9.472842796898881 8.451211433628021 6.273203733417752 0 0 0
57 1 7.824656019803937 1.3510118435772882 1.2043521080887742 0 0 0
58 1 7.849196513243757 1.587762363798616 5.895095870202514 0 0 0
59 1 6.641487637966881 3.851029086487537 1.2281043399847713 0 0 0
60 1 6.782317881831572 3.73622981659998 6.376032189211942 0 0 0
61 1 5.1975610024966565 5.895890656802101 1.4122806785457407 0 0 0
62 1 5.336440299303004 6.175915989472375 6.32558574744927 0 0 0
63 1 3.959828427341708 8.210329382107718 1.024501676536473 0 0 0
64 1 3.9061041934623915 8.2674205659113 6.395575403485041 0 0 0

Velocities

1 1.7637972063595875 2.40972436260584 0.11290449778706206
2 -1.5462813907785689 -0.9141219409048457 0.6086206690447618
3 -1.2639203543750395 1.0952041880908652 -2.7131493493667613
4 2.1260012680922777 -1.9286948542676763 2.0018300774494246
5 0.7783482503043201 -0.7792080447123807 4.817608886236982
6 -4.105674139541131 0.688512564900845 -4.761082362045116
7 3.051012539629461 4.908260771864561 -0.01481368076948221
8 -2.2899042668782448 1.5023352386364832 -0.8267333774094024
9 0.48185821562703895 0.2067645097515693 0.8525113286747962
10 -3.7355116342846983 3.415759236039968 0.4394173880507587
11 0.8894221578290565 3.9603548599521603 -1.4571101419985089
12 0.1237871969279424 -0.038888071765193565 -3.929767942428735
13 0.6737528956549376 -2.268868628499205 -5.039728862153438
14 -9.720633234278536 0.4857055440350929 0.8508052111136386
15 -1.0696241102994584 0.5850746642782227 -0.5914886656870639
16 1.6551618389790268 -0.38800021477412694 -2.1579504252863493
17 3.522660958391552 -0.8964668731494881 1.8671463533246082
18 4.890482098903018 -3.0682104408978303 1.7164254473090352
19 0.515104973078792 0.3211444265889802 -0.17380287197405123
20 -4.784615782668411 -2.8379893245087753 -1.272999401442946
21 3.961810435776163 -1.6503667827190074 2.80141447493373
22 -0.8061746728572649 5.86310302575939 -6.1522406752573815
23 -1.9179298630604462 -0.5198583641464113 -1.933954956194491
24 -7.715375806595665 -4.806676139721184 -1.059540322604546
25 4.34121617666635 1.5977221163690145 -4.0618889555893
26 2.716264746669492 -0.1678049549751894 1.987245680314896
27 1.5773715750283568 2.4317298650446233 2.351472587710492
28 3.1507997279927404 4.411965186435813 3.941551088986877
29 -1.2649622929379714 1.4527397535460926 -7.33125399918893
30 -1.8821405003008178 3.717242128131846 -0.24024617187223815
31 -4.72134390857534 -0.79157600757557 -1.4605007446883844
32 0.27842130146200617 -4.165965864649381 -1.970627088469225
33 -1.899298748282767 -1.8982509322884877 -0.12444522182365966
34 0.5412283783538407 -2.7837187789862674 5.028753687883017
35 0.499434434074489 3.897041953027091 0.9582154592510849
36 -1.728274100963399 -1.783775078755012 -0.8113771352149691
37 -5.951662642563911 -4.0015815859986406 3.02083654828057
38 -5.200713157284266 0.9413287148348031 1.833518466251235
39 5.913729068888732 -0.35193558796946184 3.033577521750805
40 0.9589206919965829 0.73593347726267 2.7118653648451314
41 1.9951330507667566 -0.12427956135589395 -1.5621916864700016
42 5.398166012595782 2.4383365636311227 -4.373441440542835
43 0.8700440704119199 -2.8273491148377534 0.2780180822643719
44 2.5721668171528074 -0.2671051519542489 -2.614677497056344
45 -1.1806498006490895 -1.445972212852453 -1.4430719157049565
46 0.7823337448797303 1.0133955114423496 -0.9003511343010127
47 6.102129499149554 1.6317398635202371 -1.7640750226943152
48 0.27223766469631755 3.5305279127428717 0.03266420964961857
49 -0.3995858449551469 0.9672819041489086 1.4097391089359494
50 0.7503181918774565 0.06021012449601241 2.6843811931222903
51 -4.019038532061175 -2.292427526736301 2.415169788802401
52 0.30994856957650935 -1.655880365932513 -0.09700957866504346
53 0.024867202926955198 -3.19865892191101 -3.228045784907528
54 1.8889145287686533 -1.0604853349723908 4.9666204635425775
55 3.2652998519286394 0.40641112100110444 -2.291519087511462
56 2.7293329662770556 5.110105554578729 2.104341546459802
57 -0.26404954083838195 -4.733640397371478 -5.33532053735072
58 -1.750028847434886 -1.1919474970784263 6.314562716424561
59 2.0581967400406573 -0.27635421929333803 1.8119739249342806
60 0.06111073290234781 -0.8491969100796548 2.6680886585779446
61 -0.21794054504039598 -1.8912857422720597 -0.49448598189435305
62 -0.410813910339457 -0.47341116851643433 -0.11077541085562935
63 -6.831560731965325 -5.372472729810028 4.624120944009431
64 3.1869225791729585 3.9167701835209003 2.054266053497126
