ITEM: TIMESTEP
10000
ITEM: NUMBER OF ATOMS
64
ITEM: BOX BOUNDS xy xz yz pp pp pp
0.0000000000000000e+00 1.0600000000000822e+01 0.0000000000000000e+00
0.0000000000000000e+00 9.1798692801157618e+00 0.0000000000000000e+00
0.0000000000000000e+00 1.0019999999999998e+01 0.0000000000000000e+00
ITEM: ATOMS id type x y z
1 1 1.31986 5.28242 3.78692
2 1 1.37441 5.06997 8.57703
3 1 0.227011 7.434 3.44276
4 1 10.6019 7.51608 8.50338
5 1 6.54432 0.868463 3.63295
6 1 6.79066 0.728664 8.61361
7 1 5.46712 3.34823 3.69842
8 1 5.48769 2.96231 8.79296
9 1 1.43788 0.893109 4.15295
10 1 1.24158 0.834446 9.1428
11 1 10.4063 2.98137 3.49184
12 1 10.4304 3.08456 8.80611
13 1 4.0817 0.785917 3.61035
14 1 3.75214 0.682928 8.54085
15 1 2.55719 2.92351 3.72119
16 1 2.8428 2.85222 8.9966
17 1 6.41151 5.64054 4.1538
18 1 6.68117 5.22252 8.78489
19 1 5.08892 7.7522 3.425
20 1 5.56284 7.69261 8.50434
21 1 9.25848 5.32264 3.95164
22 1 9.33835 5.43473 9.10644
23 1 7.92357 7.6135 3.89188
24 1 7.96406 7.56663 8.98389
25 1 3.88029 5.42927 3.89635
26 1 4.08127 5.36652 9.1672
27 1 2.61076 7.87411 3.76264
28 1 2.52604 7.46542 8.83154
29 1 9.49959 0.574948 3.66079
30 1 9.43785 0.768554 8.95216
31 1 8.01109 3.07972 3.54157
32 1 8.05158 3.14347 8.67197
33 1 5.30777 1.47581 1.1476
34 1 5.23156 1.58999 6.3171
35 1 3.75239 3.75493 1.28554
36 1 4.02762 3.88965 6.11291
37 1 2.62976 6.08653 0.864396
38 1 2.69098 6.25937 5.97719
39 1 1.41611 8.31228 1.30752
40 1 1.40041 8.58588 6.54024
41 1 10.549 1.76053 1.12872
42 1 10.5828 1.69959 6.29052
43 1 2.59553 1.35861 1.401
44 1 2.86606 1.6449 5.97683
45 1 1.13808 3.988 1.33269
46 1 1.34182 3.84912 6.29061
47 1 10.5873 6.18997 1.05249
48 1 -0.00440815 6.10428 6.04439
49 1 8.99061 3.87052 1.44009
50 1 9.29599 3.87671 6.39105
51 1 7.55459 6.0873 1.848
52 1 8.11572 6.16878 6.53675
53 1 6.45489 8.4857 1.19911
54 1 6.57381 8.54378 6.01925
55 1 9.4409 8.45122 1.20445
56 1 9.47284 8.45121 6.2732
57 1 7.82466 1.35101 1.20435
58 1 7.8492 1.58776 5.8951
59 1 6.64149 3.85103 1.2281
60 1 6.78232 3.73623 6.37603
61 1 5.19756 5.89589 1.41228
62 1 5.33644 6.17592 6.32559
63 1 3.95983 8.21033 1.0245
64 1 3.9061 8.26742 6.39558
