LAMMPS (29 Sep 2021 - Update 1)
Reading data file ...
  triclinic box = (0.0000000 0.0000000 0.0000000) to (10.480000 9.0759462 10.300000) with tilt (0.0000000 0.0000000 0.0000000)
  1 by 1 by 1 MPI processor grid
  reading atoms ...
  64 atoms
  read_data CPU = 0.001 seconds
Neighbor list info ...
  update every 1 steps, delay 0 steps, check yes
  max neighbors/atom: 2000, page size: 100000
  master list distance cutoff = 7
  ghost atom cutoff = 7
  binsize = 3.5, bins = 3 3 3
  1 neighbor lists, perpetual/occasional/extra = 1 0 0
  (1) pair mlip, perpetual
      attributes: full, newton on
      pair build: full/bin/atomonly
      stencil: full/bin/3d
      bin: standard
Setting up Verlet run ...
  Unit style    : metal
  Current step  : 0
  Time step     : 0.001
Per MPI rank memory allocation (min/avg/max) = 3.089 | 3.089 | 3.089 Mbytes
Step Time Temp Volume Press 
       0            0         1380    979.69394    9879.2457 
       1        0.001    1379.0469    979.69394    9910.9497 
       2        0.002     1376.191    979.69394    10005.965 
       3        0.003    1371.4439    979.69394    10158.341 
       4        0.004    1364.8277    979.69394    10360.232 
       5        0.005    1356.3725    979.69394    10613.831 
       6        0.006    1346.1138    979.69394    10923.392 
       7        0.007    1334.0935    979.69394    11290.889 
       8        0.008    1320.3603    979.69394    11713.776 
       9        0.009    1304.9706    979.69394     12191.01 
      10         0.01     1287.988    979.69394    12722.283 
Loop time of 0.206825 on 1 procs for 10 steps with 64 atoms

Performance: 4.177 ns/day, 5.745 hours/ns, 48.350 timesteps/s
96.0% CPU use with 1 MPI tasks x no OpenMP threads

MPI task timing breakdown:
Section |  min time  |  avg time  |  max time  |%varavg| %total
---------------------------------------------------------------
Pair    | 0.20672    | 0.20672    | 0.20672    |   0.0 | 99.95
Neigh   | 0          | 0          | 0          |   0.0 |  0.00
Comm    | 3.3426e-05 | 3.3426e-05 | 3.3426e-05 |   0.0 |  0.02
Output  | 3.9265e-05 | 3.9265e-05 | 3.9265e-05 |   0.0 |  0.02
Modify  | 2.438e-05  | 2.438e-05  | 2.438e-05  |   0.0 |  0.01
Other   |            | 1.074e-05  |            |       |  0.01

Nlocal:        64.0000 ave          64 max          64 min
Histogram: 1 0 0 0 0 0 0 0 0 0
Nghost:        886.000 ave         886 max         886 min
Histogram: 1 0 0 0 0 0 0 0 0 0
Neighs:         0.00000 ave           0 max           0 min
Histogram: 1 0 0 0 0 0 0 0 0 0
FullNghs:      6272.00 ave        6272 max        6272 min
Histogram: 1 0 0 0 0 0 0 0 0 0

Total # of neighbors = 6272
Ave neighs/atom = 98.000000
Neighbor list builds = 0
Dangerous builds = 0
Setting up Verlet run ...
  Unit style    : metal
  Current step  : 10
  Time step     : 0.001
Per MPI rank memory allocation (min/avg/max) = 3.089 | 3.089 | 3.089 Mbytes
Step Time Temp Volume Press 
      10         0.01     1287.988    979.69394    12722.283 
      11        0.011    1269.4832    979.69394    13305.879 
      12        0.012    1249.5342    979.69394    13940.058 
      13        0.013    1228.2264    979.69394     14622.12 
      14        0.014    1205.6519    979.69394     15349.44 
      15        0.015    1181.9097    979.69394    16117.497 
      16        0.016    1157.1044    979.69394    16922.299 
      17        0.017    1131.3476    979.69394    17762.066 
      18        0.018    1104.7565    979.69394    18632.533 
      19        0.019    1077.4537    979.69394    19528.789 
      20         0.02    1049.5658    979.69394    20445.774 
      21        0.021     1021.223    979.69394    21378.075 
      22        0.022    992.55856    979.69394    22320.478 
      23        0.023    963.70782    979.69394    23270.491 
      24        0.024    934.80805    979.69394     24224.34 
      25        0.025    905.99644    979.69394    25175.985 
      26        0.026    877.40923    979.69394    26123.096 
      27        0.027    849.18067    979.69394    27060.763 
      28        0.028    821.44137    979.69394    27984.676 
      29        0.029    794.31703    979.69394    28890.409 
      30         0.03    767.92692    979.69394    29771.345 
      31        0.031    742.38326    979.69394    30627.769 
      32        0.032    717.79067    979.69394    31457.759 
      33        0.033     694.2442    979.69394    32255.594 
      34        0.034     671.8284    979.69394    33019.277 
      35        0.035    650.61709    979.69394    33749.035 
      36        0.036    630.67248    979.69394    34441.401 
      37        0.037    612.04445    979.69394    35094.607 
      38        0.038    594.77049    979.69394    35708.022 
      39        0.039     578.8755    979.69394    36281.094 
      40         0.04    564.37176    979.69394    36811.792 
      41        0.041    551.25909    979.69394    37298.996 
      42        0.042     539.5255    979.69394    37743.917 
      43        0.043    529.14786    979.69394    38147.283 
      44        0.044    520.09255    979.69394    38509.231 
      45        0.045    512.31635    979.69394    38830.773 
      46        0.046    505.76753    979.69394    39112.178 
      47        0.047    500.38649    979.69394    39350.331 
      48        0.048     496.1065    979.69394    39549.317 
      49        0.049    492.85558    979.69394    39713.967 
      50         0.05     490.5577    979.69394    39845.854 
      51        0.051    489.13376    979.69394    39947.279 
      52        0.052    488.50277    979.69394    40019.926 
      53        0.053    488.58289    979.69394    40066.382 
      54        0.054    489.29254    979.69394    40088.795 
      55        0.055    490.55094    979.69394    40089.742 
      56        0.056    492.27892    979.69394    40070.881 
      57        0.057    494.39985    979.69394    40035.811 
      58        0.058    496.84039    979.69394    39986.725 
      59        0.059    499.53097    979.69394    39924.863 
      60         0.06    502.40629    979.69394    39852.782 
      61        0.061    505.40578    979.69394    39772.356 
      62        0.062    508.47367    979.69394     39685.09 
      63        0.063    511.55877    979.69394    39590.039 
      64        0.064     514.6146    979.69394    39489.029 
      65        0.065    517.60024    979.69394    39386.248 
      66        0.066    520.48039    979.69394    39284.307 
      67        0.067    523.22435    979.69394    39181.039 
      68        0.068    525.80625    979.69394    39079.276 
      69        0.069    528.20579    979.69394    38981.458 
      70         0.07    530.40759    979.69394    38889.309 
      71        0.071    532.40077    979.69394    38803.274 
      72        0.072     534.1789    979.69394      38722.7 
      73        0.073    535.73976    979.69394    38648.343 
      74        0.074    537.08483    979.69394    38580.911 
      75        0.075     538.2189    979.69394    38520.115 
      76        0.076    539.14929    979.69394    38462.003 
      77        0.077    539.88589    979.69394    38407.791 
      78        0.078     540.4416    979.69394    38360.059 
      79        0.079     540.8317    979.69394    38317.433 
      80         0.08    541.07315    979.69394     38280.46 
      81        0.081    541.18428    979.69394    38249.286 
      82        0.082    541.18411    979.69394    38221.689 
      83        0.083    541.09208    979.69394    38198.049 
      84        0.084    540.92822    979.69394    38178.124 
      85        0.085    540.71287    979.69394    38160.981 
      86        0.086    540.46595    979.69394    38147.116 
      87        0.087    540.20669    979.69394    38136.406 
      88        0.088     539.9534    979.69394    38127.523 
      89        0.089    539.72325    979.69394    38119.753 
      90         0.09    539.53188    979.69394     38112.68 
      91        0.091    539.39332    979.69394    38104.806 
      92        0.092    539.31987    979.69394    38097.363 
      93        0.093     539.3217    979.69394     38089.42 
      94        0.094    539.40683    979.69394    38080.479 
      95        0.095     539.5805    979.69394    38065.242 
      96        0.096    539.84576    979.69394     38048.19 
      97        0.097    540.20435    979.69394    38030.476 
      98        0.098    540.65607    979.69394    38011.685 
      99        0.099    541.19883    979.69394    37991.859 
     100          0.1    541.82842    979.69394    37967.014 
Loop time of 1.85725 on 1 procs for 90 steps with 64 atoms

Performance: 4.187 ns/day, 5.732 hours/ns, 48.459 timesteps/s
100.0% CPU use with 1 MPI tasks x no OpenMP threads

MPI task timing breakdown:
Section |  min time  |  avg time  |  max time  |%varavg| %total
---------------------------------------------------------------
Pair    | 1.8562     | 1.8562     | 1.8562     |   0.0 | 99.94
Neigh   | 0.00022931 | 0.00022931 | 0.00022931 |   0.0 |  0.01
Comm    | 0.00029485 | 0.00029485 | 0.00029485 |   0.0 |  0.02
Output  | 0.00031532 | 0.00031532 | 0.00031532 |   0.0 |  0.02
Modify  | 0.00015343 | 0.00015343 | 0.00015343 |   0.0 |  0.01
Other   |            | 6.984e-05  |            |       |  0.00

Nlocal:        64.0000 ave          64 max          64 min
Histogram: 1 0 0 0 0 0 0 0 0 0
Nghost:        886.000 ave         886 max         886 min
Histogram: 1 0 0 0 0 0 0 0 0 0
Neighs:         0.00000 ave           0 max           0 min
Histogram: 1 0 0 0 0 0 0 0 0 0
FullNghs:      6076.00 ave        6076 max        6076 min
Histogram: 1 0 0 0 0 0 0 0 0 0

Total # of neighbors = 6076
Ave neighs/atom = 94.937500
Neighbor list builds = 1
Dangerous builds = 0
Setting up Verlet run ...
  Unit style    : metal
  Current step  : 100
  Time step     : 0.001
Per MPI rank memory allocation (min/avg/max) = 3.089 | 3.089 | 3.089 Mbytes
Step Time Temp Volume Press 
     100          0.1    541.82842    979.69394    37967.014 
     110         0.11    551.09848    979.69394    37670.003 
     120         0.12    559.02655    979.69394    37375.101 
     130         0.13    562.88144    979.69394    37090.826 
     140         0.14    572.81069    979.69394    36558.128 
     150         0.15    598.39233    979.69394    35664.114 
     160         0.16    631.11915    979.69394     34716.58 
     170         0.17    647.72814    979.69394     34424.76 
     180         0.18    631.90606    979.69394    35273.144 
     190         0.19    592.56053    979.69394     36925.46 
     200          0.2    559.88986    979.69394    38346.767 
     210         0.21    559.18507    979.69394    38748.473 
     220         0.22    590.37657    979.69394    38063.367 
     230         0.23     633.8952    979.69394    36865.854 
     240         0.24    668.70963    979.69394    35938.255 
     250         0.25    685.75377    979.69394    35602.573 
     260         0.26     689.9516    979.69394    35844.826 
     270         0.27    690.57133    979.69394    36299.119 
     280         0.28    693.02864    979.69394    36756.589 
     290         0.29    700.21551    979.69394    37072.774 
     300          0.3    713.72258    979.69394    37181.043 
     310         0.31    728.44637    979.69394    37231.981 
     320         0.32    734.10109    979.69394    37374.636 
     330         0.33    729.71533    979.69394    37731.413 
     340         0.34    727.83751    979.69394    38097.102 
     350         0.35    731.79699    979.69394     38523.69 
     360         0.36    723.13331    979.69394    39486.314 
     370         0.37    689.32447    979.69394    41166.656 
     380         0.38    648.27621    979.69394    42982.204 
     390         0.39    630.19552    979.69394    44023.349 
     400          0.4     645.9535    979.69394    43865.648 
     410         0.41    681.76963    979.69394    42885.841 
     420         0.42    718.86651    979.69394    41824.788 
     430         0.43    747.25545    979.69394    41125.874 
     440         0.44    762.48485    979.69394    40894.743 
     450         0.45    763.28237    979.69394     40944.91 
     460         0.46    758.55395    979.69394    40916.677 
     470         0.47    762.89783    979.69394    40492.868 
     480         0.48    775.61676    979.69394    39743.165 
     490         0.49    781.66753    979.69394    39020.958 
     500          0.5    774.74837    979.69394    38644.643 
     510         0.51    759.47438    979.69394    38639.988 
     520         0.52    737.82049    979.69394    38724.984 
     530         0.53    717.05012    979.69394     38478.11 
     540         0.54    716.95603    979.69394    37532.798 
     550         0.55    728.37853    979.69394     36181.13 
     560         0.56    722.74901    979.69394    35199.417 
     570         0.57    699.78259    979.69394    34739.217 
     580         0.58    673.92557    979.69394    34458.596 
     590         0.59    655.98721    979.69394    34187.965 
     600          0.6    648.85495    979.69394    33847.984 
     610         0.61    646.94573    979.69394    33471.784 
     620         0.62    645.75399    979.69394    33062.311 
     630         0.63    648.65302    979.69394      32561.1 
     640         0.64    656.18104    979.69394    32014.227 
     650         0.65    659.01457    979.69394    31636.017 
     660         0.66    650.92268    979.69394    31548.069 
     670         0.67    637.11487    979.69394    31713.234 
     680         0.68    626.79283    979.69394    32026.416 
     690         0.69    623.39863    979.69394    32395.538 
     700          0.7    623.04836    979.69394    32808.011 
     710         0.71     622.7514    979.69394    33155.656 
     720         0.72    626.49374    979.69394    33257.615 
     730         0.73    637.77644    979.69394    33148.994 
     740         0.74    651.47221    979.69394    33005.988 
     750         0.75    657.71264    979.69394    33123.629 
     760         0.76    649.59405    979.69394    33656.279 
     770         0.77    626.32399    979.69394    34590.245 
     780         0.78    599.75658    979.69394    35503.371 
     790         0.79    600.08029    979.69394    35670.013 
     800          0.8    639.68083    979.69394    34903.059 
     810         0.81    683.33085    979.69394    34101.222 
     820         0.82     699.4341    979.69394    34162.596 
     830         0.83    694.83818    979.69394    34961.762 
     840         0.84    693.15154    979.69394    35860.113 
     850         0.85      702.847    979.69394     36506.66 
     860         0.86    712.68766    979.69394    37056.302 
     870         0.87    710.07426    979.69394    37891.928 
     880         0.88    692.99688    979.69394    39031.128 
     890         0.89    670.62247    979.69394    40157.472 
     900          0.9    661.11121    979.69394    40696.661 
     910         0.91    679.91633    979.69394    40300.606 
     920         0.92    721.46397    979.69394     39123.25 
     930         0.93    759.38491    979.69394    37933.477 
     940         0.94    768.58743    979.69394    37540.309 
     950         0.95    745.98621    979.69394    38082.976 
     960         0.96    712.99776    979.69394    38870.716 
     970         0.97    699.86052    979.69394    39091.557 
     980         0.98    714.78927    979.69394    38676.635 
     990         0.99    734.86221    979.69394    38209.156 
    1000            1    733.08136    979.69394    38497.303 
Loop time of 18.4726 on 1 procs for 900 steps with 64 atoms

Performance: 4.209 ns/day, 5.701 hours/ns, 48.721 timesteps/s
100.0% CPU use with 1 MPI tasks x no OpenMP threads

MPI task timing breakdown:
Section |  min time  |  avg time  |  max time  |%varavg| %total
---------------------------------------------------------------
Pair    | 18.463     | 18.463     | 18.463     |   0.0 | 99.95
Neigh   | 0.0036944  | 0.0036944  | 0.0036944  |   0.0 |  0.02
Comm    | 0.0030729  | 0.0030729  | 0.0030729  |   0.0 |  0.02
Output  | 0.00046141 | 0.00046141 | 0.00046141 |   0.0 |  0.00
Modify  | 0.001705   | 0.001705   | 0.001705   |   0.0 |  0.01
Other   |            | 0.0006932  |            |       |  0.00

Nlocal:        64.0000 ave          64 max          64 min
Histogram: 1 0 0 0 0 0 0 0 0 0
Nghost:        882.000 ave         882 max         882 min
Histogram: 1 0 0 0 0 0 0 0 0 0
Neighs:         0.00000 ave           0 max           0 min
Histogram: 1 0 0 0 0 0 0 0 0 0
FullNghs:      6068.00 ave        6068 max        6068 min
Histogram: 1 0 0 0 0 0 0 0 0 0

Total # of neighbors = 6068
Ave neighs/atom = 94.812500
Neighbor list builds = 16
Dangerous builds = 0
Setting up Verlet run ...
  Unit style    : metal
  Current step  : 1000
  Time step     : 0.001
Per MPI rank memory allocation (min/avg/max) = 3.089 | 3.089 | 3.089 Mbytes
Step Time Temp Volume Press 
    1000            1    733.08136    979.69394    38497.303 
    1100          1.1     800.9245    979.69394    34395.645 
    1200          1.2    722.74056    979.69394    35989.612 
    1300          1.3    641.02225    979.69394    38786.834 
    1400          1.4    671.94507    979.69394    38644.719 
    1500          1.5    782.83386    979.69394    37759.657 
    1600          1.6    608.09902    979.69394    36950.582 
    1700          1.7    649.67976    979.69394    32192.157 
    1800          1.8    751.70847    979.69394    29757.366 
    1900          1.9    663.25287    979.69394     36991.12 
    2000            2    765.27611    979.69394    39565.773 
    2100          2.1     754.9772    979.69394    40548.569 
    2200          2.2    799.99173    979.69394    35832.029 
    2300          2.3    714.92083    979.69394    31875.497 
    2400          2.4    698.29422    979.69394    33484.637 
    2500          2.5    736.33011    979.69394    35564.925 
    2600          2.6    696.80302    979.69394    37890.944 
    2700          2.7    673.52706    979.69394    42402.343 
    2800          2.8     730.8933    979.69394     46633.88 
    2900          2.9     773.2168    979.69394    40583.206 
    3000            3    716.26639    979.69394    35979.996 
    3100          3.1    666.21674    979.69394    34493.533 
    3200          3.2    645.65246    979.69394    33985.233 
    3300          3.3    627.78529    979.69394    38959.649 
    3400          3.4    889.48502    979.69394    37927.945 
    3500          3.5    786.45959    979.69394    38720.532 
    3600          3.6      676.931    979.69394    39339.561 
    3700          3.7    684.42727    979.69394    34429.545 
    3800          3.8    552.33955    979.69394     35910.26 
    3900          3.9    870.28645    979.69394    34464.219 
    4000            4    820.58719    979.69394    39090.718 
    4100          4.1    728.12333    979.69394     38417.02 
    4200          4.2    681.15385    979.69394    36292.857 
    4300          4.3    672.14705    979.69394    35427.734 
    4400          4.4     579.6509    979.69394    35505.117 
    4500          4.5    697.58417    979.69394     34050.84 
    4600          4.6    799.09532    979.69394    39628.954 
    4700          4.7    641.82155    979.69394    41599.246 
    4800          4.8    667.10695    979.69394    35344.195 
    4900          4.9    656.45949    979.69394    32090.456 
    5000            5    577.72425    979.69394    36267.965 
    5100          5.1    666.83702    979.69394    44033.891 
    5200          5.2    701.41998    979.69394    44989.517 
    5300          5.3    791.53787    979.69394    36459.821 
    5400          5.4     687.1299    979.69394     35718.82 
    5500          5.5    641.44698    979.69394    36551.236 
    5600          5.6    645.02348    979.69394    37103.967 
    5700          5.7    835.33234    979.69394    38899.859 
    5800          5.8    731.45494    979.69394     43937.42 
    5900          5.9    631.35207    979.69394    37649.547 
    6000            6     711.5556    979.69394    32096.718 
    6100          6.1    752.91326    979.69394    33664.493 
    6200          6.2    639.27141    979.69394    37431.588 
    6300          6.3    691.36598    979.69394    33233.332 
    6400          6.4    626.86591    979.69394    36000.818 
    6500          6.5     711.1322    979.69394    38087.251 
    6600          6.6    758.73666    979.69394     38614.15 
    6700          6.7     667.7639    979.69394    35214.687 
    6800          6.8    653.36627    979.69394    32907.776 
    6900          6.9    667.89598    979.69394    33111.586 
    7000            7    674.54871    979.69394    37051.363 
    7100          7.1     808.5909    979.69394    32458.291 
    7200          7.2     678.1319    979.69394    37050.036 
    7300          7.3    786.94369    979.69394    37505.764 
    7400          7.4    629.09084    979.69394    40790.499 
    7500          7.5    562.69381    979.69394    40112.951 
    7600          7.6    713.50708    979.69394    30031.692 
    7700          7.7    604.50929    979.69394    29892.125 
    7800          7.8    585.73161    979.69394    34232.337 
    7900          7.9    677.32824    979.69394    38104.954 
    8000            8    743.84137    979.69394    39341.783 
    8100          8.1    767.92083    979.69394    33728.584 
    8200          8.2     648.6967    979.69394    33387.532 
    8300          8.3    740.53027    979.69394     34633.48 
    8400          8.4    904.86441    979.69394    37066.736 
    8500          8.5    769.85237    979.69394    42135.662 
    8600          8.6    607.43227    979.69394    37354.535 
    8700          8.7    749.16367    979.69394    30531.905 
    8800          8.8    543.57202    979.69394    40061.686 
    8900          8.9     704.3224    979.69394    38226.038 
    9000            9    699.93558    979.69394      40666.4 
    9100          9.1    637.09292    979.69394    40895.905 
    9200          9.2    615.31739    979.69394    39566.905 
    9300          9.3    581.71514    979.69394    36999.068 
    9400          9.4    684.33994    979.69394    31147.824 
    9500          9.5     663.3636    979.69394    32313.661 
    9600          9.6    639.77029    979.69394    39836.811 
    9700          9.7    700.69001    979.69394    40357.218 
    9800          9.8    790.53956    979.69394    37393.219 
    9900          9.9    674.31377    979.69394    40514.805 
   10000           10    862.31383    979.69394    31935.042 
Loop time of 194.317 on 1 procs for 9000 steps with 64 atoms

Performance: 4.002 ns/day, 5.997 hours/ns, 46.316 timesteps/s
100.0% CPU use with 1 MPI tasks x no OpenMP threads

MPI task timing breakdown:
Section |  min time  |  avg time  |  max time  |%varavg| %total
---------------------------------------------------------------
Pair    | 194.22     | 194.22     | 194.22     |   0.0 | 99.95
Neigh   | 0.038679   | 0.038679   | 0.038679   |   0.0 |  0.02
Comm    | 0.032374   | 0.032374   | 0.032374   |   0.0 |  0.02
Output  | 0.00055053 | 0.00055053 | 0.00055053 |   0.0 |  0.00
Modify  | 0.01604    | 0.01604    | 0.01604    |   0.0 |  0.01
Other   |            | 0.006888   |            |       |  0.00

Nlocal:        64.0000 ave          64 max          64 min
Histogram: 1 0 0 0 0 0 0 0 0 0
Nghost:        886.000 ave         886 max         886 min
Histogram: 1 0 0 0 0 0 0 0 0 0
Neighs:         0.00000 ave           0 max           0 min
Histogram: 1 0 0 0 0 0 0 0 0 0
FullNghs:      6054.00 ave        6054 max        6054 min
Histogram: 1 0 0 0 0 0 0 0 0 0

Total # of neighbors = 6054
Ave neighs/atom = 94.593750
Neighbor list builds = 161
Dangerous builds = 0
System init for write_data ...
Total wall time: 0:03:35
