ITEM: TIMESTEP
10000
ITEM: NUMBER OF ATOMS
64
ITEM: BOX BOUNDS xy xz yz pp pp pp
0.0000000000000000e+00 1.0479999999999203e+01 0.0000000000000000e+00
0.0000000000000000e+00 9.0759462316602288e+00 0.0000000000000000e+00
0.0000000000000000e+00 1.0300000000000001e+01 0.0000000000000000e+00
ITEM: ATOMS id type x y z
1 1 1.63014 5.39148 3.94625
2 1 1.22668 5.30097 9.20373
3 1 0.144613 7.79747 4.22177
4 1 0.0490766 7.52991 9.01633
5 1 6.50039 0.484524 3.99328
6 1 6.58618 0.988856 8.61096
7 1 5.17087 3.02075 4.01562
8 1 5.26756 3.16922 9.23755
9 1 1.32607 0.765189 3.42546
10 1 1.26708 0.842914 9.05659
11 1 0.0486716 3.0108 3.70135
12 1 0.201763 2.98576 8.74292
13 1 3.72585 0.693334 3.63561
14 1 4.13076 0.687977 9.27064
15 1 2.6141 2.87906 4.20879
16 1 2.77833 2.68194 8.91752
17 1 6.68265 5.39246 4.16073
18 1 6.55846 5.42665 9.76196
19 1 5.16395 7.51181 3.68262
20 1 5.41676 7.42254 8.49811
21 1 9.18795 5.26048 4.2059
22 1 9.18312 5.39432 9.28089
23 1 8.10499 7.52842 3.62114
24 1 7.91537 7.60671 8.94804
25 1 4.12184 5.21577 3.72109
26 1 3.92086 5.58085 8.89208
27 1 2.60497 7.60374 3.80978
28 1 2.6447 7.61245 9.38143
29 1 9.06958 0.989086 3.85929
30 1 9.07708 0.886221 9.09584
31 1 7.81182 3.01984 3.815
32 1 7.66152 3.4081 8.66547
33 1 5.26065 1.45879 1.44476
34 1 5.23959 1.51269 6.60284
35 1 3.89681 3.93458 1.1785
36 1 3.9266 3.68292 6.60424
37 1 2.26935 5.91095 1.30475
38 1 2.69287 5.97657 6.35329
39 1 1.17009 8.20045 1.06752
40 1 1.32028 8.3519 6.803
41 1 10.1575 1.45384 1.15092
42 1 0.0857705 1.41798 6.59432
43 1 2.79122 1.63847 1.07931
44 1 2.75396 1.45168 6.35011
45 1 1.14614 3.55441 1.35549
46 1 1.45199 3.79135 6.4884
47 1 10.1419 6.05191 1.35731
48 1 0.0502202 6.18486 6.31145
49 1 9.18356 3.56314 0.648166
50 1 9.44223 3.84542 6.51162
51 1 7.87182 5.95782 1.68856
52 1 7.93053 6.15978 6.68732
53 1 6.3426 8.24814 0.715232
54 1 6.62149 8.23098 6.42417
55 1 8.99212 8.30734 1.32637
56 1 9.18468 8.38875 6.25549
57 1 7.62817 1.52858 1.08119
58 1 7.9235 1.52931 6.52676
59 1 6.55628 3.82151 1.51522
60 1 6.63301 3.69404 6.27423
61 1 5.07999 6.09125 1.35432
62 1 5.1937 5.91503 6.38727
63 1 3.71323 8.18024 1.3035
64 1 3.95433 8.30597 6.25066
