LAMMPS (29 Sep 2021 - Update 1)
Reading data file ...
  triclinic box = (0.0000000 0.0000000 0.0000000) to (10.480000 9.0759462 10.380000) with tilt (0.0000000 0.0000000 0.0000000)
  1 by 1 by 1 MPI processor grid
  reading atoms ...
  64 atoms
  read_data CPU = 0.001 seconds
Neighbor list info ...
  update every 1 steps, delay 0 steps, check yes
  max neighbors/atom: 2000, page size: 100000
  master list distance cutoff = 7
  ghost atom cutoff = 7
  binsize = 3.5, bins = 3 3 3
  1 neighbor lists, perpetual/occasional/extra = 1 0 0
  (1) pair mlip, perpetual
      attributes: full, newton on
      pair build: full/bin/atomonly
      stencil: full/bin/3d
      bin: standard
Setting up Verlet run ...
  Unit style    : metal
  Current step  : 0
  Time step     : 0.001
Per MPI rank memory allocation (min/avg/max) = 3.089 | 3.089 | 3.089 Mbytes
Step Time Temp Volume Press 
       0            0         1380    987.30321    5977.1903 
       1        0.001    1379.0687    987.30321    6008.0954 
       2        0.002    1376.2748    987.30321    6100.8245 
       3        0.003    1371.6227    987.30321    6253.5529 
       4        0.004    1365.1271    987.30321    6459.4184 
       5        0.005    1356.8122    987.30321    6716.7818 
       6        0.006    1346.7095    987.30321    7027.2367 
       7        0.007     1334.858    987.30321    7390.5061 
       8        0.008    1321.3048    987.30321     7803.049 
       9        0.009     1306.105    987.30321    8268.0893 
      10         0.01    1289.3214    987.30321    8786.1466 
Loop time of 0.196862 on 1 procs for 10 steps with 64 atoms

Performance: 4.389 ns/day, 5.468 hours/ns, 50.797 timesteps/s
97.9% CPU use with 1 MPI tasks x no OpenMP threads

MPI task timing breakdown:
Section |  min time  |  avg time  |  max time  |%varavg| %total
---------------------------------------------------------------
Pair    | 0.19676    | 0.19676    | 0.19676    |   0.0 | 99.95
Neigh   | 0          | 0          | 0          |   0.0 |  0.00
Comm    | 3.0277e-05 | 3.0277e-05 | 3.0277e-05 |   0.0 |  0.02
Output  | 3.567e-05  | 3.567e-05  | 3.567e-05  |   0.0 |  0.02
Modify  | 2.3603e-05 | 2.3603e-05 | 2.3603e-05 |   0.0 |  0.01
Other   |            | 9.768e-06  |            |       |  0.00

Nlocal:        64.0000 ave          64 max          64 min
Histogram: 1 0 0 0 0 0 0 0 0 0
Nghost:        886.000 ave         886 max         886 min
Histogram: 1 0 0 0 0 0 0 0 0 0
Neighs:         0.00000 ave           0 max           0 min
Histogram: 1 0 0 0 0 0 0 0 0 0
FullNghs:      6272.00 ave        6272 max        6272 min
Histogram: 1 0 0 0 0 0 0 0 0 0

Total # of neighbors = 6272
Ave neighs/atom = 98.000000
Neighbor list builds = 0
Dangerous builds = 0
Setting up Verlet run ...
  Unit style    : metal
  Current step  : 10
  Time step     : 0.001
Per MPI rank memory allocation (min/avg/max) = 3.089 | 3.089 | 3.089 Mbytes
Step Time Temp Volume Press 
      10         0.01    1289.3214    987.30321    8786.1466 
      11        0.011    1271.0252    987.30321    9355.0028 
      12        0.012    1251.2956    987.30321    9972.3963 
      13        0.013    1230.2204    987.30321     10636.23 
      14        0.014    1207.8947    987.30321    11341.581 
      15        0.015    1184.4195    987.30321    12079.786 
      16        0.016    1159.9021    987.30321    12846.983 
      17        0.017    1134.4572    987.30321    13640.109 
      18        0.018    1108.2069    987.30321    14455.005 
      19        0.019    1081.2798    987.30321    15289.833 
      20         0.02    1053.8107    987.30321    16144.022 
      21        0.021     1025.939    987.30321    17010.095 
      22        0.022    997.80646    987.30321    17883.519 
      23        0.023    969.55751    987.30321    18760.342 
      24        0.024    941.33771    987.30321    19638.358 
      25        0.025    913.29233    987.30321    20510.961 
      26        0.026    885.56478    987.30321     21375.59 
      27        0.027     858.2955    987.30321    22227.483 
      28        0.028    831.62002    987.30321     23061.22 
      29        0.029    805.66762    987.30321    23872.661 
      30         0.03       780.56    987.30321    24657.253 
      31        0.031    756.41047    987.30321    25414.784 
      32        0.032    733.32286    987.30321    26142.914 
      33        0.033    711.38955    987.30321    26835.428 
      34        0.034    690.69067    987.30321    27492.032 
      35        0.035    671.29364    987.30321    28109.682 
      36        0.036    653.25256    987.30321    28688.163 
      37        0.037     636.6079    987.30321    29226.651 
      38        0.038    621.38618    987.30321    29722.783 
      39        0.039     607.5999    987.30321    30176.672 
      40         0.04    595.24798    987.30321    30588.915 
      41        0.041    584.31603    987.30321    30957.817 
      42        0.042    574.77706    987.30321     31284.33 
      43        0.043    566.59251    987.30321    31570.152 
      44        0.044    559.71312    987.30321    31815.207 
      45        0.045    554.07992    987.30321    32021.119 
      46        0.046    549.62551    987.30321    32189.295 
      47        0.047    546.27536    987.30321    32322.547 
      48        0.048    543.94928    987.30321    32422.729 
      49        0.049     542.5625    987.30321     32490.64 
      50         0.05    542.02708    987.30321    32529.536 
      51        0.051    542.25336    987.30321    32542.659 
      52        0.052    543.15104    987.30321    32532.111 
      53        0.053    544.63019    987.30321    32499.657 
      54        0.054    546.60237    987.30321    32448.102 
      55        0.055    548.98162    987.30321    32378.587 
      56        0.056    551.68538    987.30321    32294.048 
      57        0.057    554.63512    987.30321    32196.926 
      58        0.058    557.75677    987.30321    32088.903 
      59        0.059    560.98135    987.30321    31972.446 
      60         0.06    564.24535    987.30321    31849.765 
      61        0.061    567.49115    987.30321    31722.782 
      62        0.062    570.66676    987.30321     31595.86 
      63        0.063    573.72603    987.30321    31468.359 
      64        0.064    576.62876    987.30321    31338.622 
      65        0.065    579.34091    987.30321    31210.979 
      66        0.066    581.83484    987.30321    31087.103 
      67        0.067    584.08829    987.30321    30966.955 
      68        0.068    586.08406    987.30321    30852.093 
      69        0.069    587.80969    987.30321    30742.812 
      70         0.07    589.25712    987.30321    30638.443 
      71        0.071    590.42273    987.30321    30542.027 
      72        0.072    591.30708    987.30321    30453.851 
      73        0.073    591.91436    987.30321    30372.834 
      74        0.074    592.25197    987.30321    30301.247 
      75        0.075    592.33018    987.30321    30239.059 
      76        0.076      592.162    987.30321    30184.913 
      77        0.077    591.76272    987.30321     30136.57 
      78        0.078    591.14962    987.30321     30094.35 
      79        0.079    590.34169    987.30321     30057.88 
      80         0.08    589.35921    987.30321    30028.035 
      81        0.081    588.22327    987.30321    30003.628 
      82        0.082    586.95554    987.30321    29982.804 
      83        0.083    585.57822    987.30321    29966.013 
      84        0.084    584.11377    987.30321    29952.921 
      85        0.085    582.58439    987.30321    29943.645 
      86        0.086    581.01181    987.30321    29936.132 
      87        0.087    579.41721    987.30321    29929.589 
      88        0.088    577.82101    987.30321    29924.951 
      89        0.089    576.24253    987.30321    29921.689 
      90         0.09    574.69966    987.30321    29916.772 
      91        0.091    573.20905    987.30321    29910.337 
      92        0.092    571.78608    987.30321    29902.796 
      93        0.093    570.44461    987.30321    29894.586 
      94        0.094    569.19738    987.30321    29885.072 
      95        0.095    568.05548    987.30321    29874.056 
      96        0.096    567.02777    987.30321    29862.151 
      97        0.097    566.12122    987.30321    29848.857 
      98        0.098    565.34107    987.30321    29834.203 
      99        0.099    564.69049    987.30321    29815.381 
     100          0.1    564.17074    987.30321    29791.674 
Loop time of 1.75414 on 1 procs for 90 steps with 64 atoms

Performance: 4.433 ns/day, 5.414 hours/ns, 51.307 timesteps/s
100.0% CPU use with 1 MPI tasks x no OpenMP threads

MPI task timing breakdown:
Section |  min time  |  avg time  |  max time  |%varavg| %total
---------------------------------------------------------------
Pair    | 1.7531     | 1.7531     | 1.7531     |   0.0 | 99.94
Neigh   | 0.00022156 | 0.00022156 | 0.00022156 |   0.0 |  0.01
Comm    | 0.00027957 | 0.00027957 | 0.00027957 |   0.0 |  0.02
Output  | 0.00030453 | 0.00030453 | 0.00030453 |   0.0 |  0.02
Modify  | 0.00016722 | 0.00016722 | 0.00016722 |   0.0 |  0.01
Other   |            | 6.826e-05  |            |       |  0.00

Nlocal:        64.0000 ave          64 max          64 min
Histogram: 1 0 0 0 0 0 0 0 0 0
Nghost:        886.000 ave         886 max         886 min
Histogram: 1 0 0 0 0 0 0 0 0 0
Neighs:         0.00000 ave           0 max           0 min
Histogram: 1 0 0 0 0 0 0 0 0 0
FullNghs:      5994.00 ave        5994 max        5994 min
Histogram: 1 0 0 0 0 0 0 0 0 0

Total # of neighbors = 5994
Ave neighs/atom = 93.656250
Neighbor list builds = 1
Dangerous builds = 0
Setting up Verlet run ...
  Unit style    : metal
  Current step  : 100
  Time step     : 0.001
Per MPI rank memory allocation (min/avg/max) = 3.089 | 3.089 | 3.089 Mbytes
Step Time Temp Volume Press 
     100          0.1    564.17074    987.30321    29791.674 
     110         0.11    565.43382    987.30321    29437.632 
     120         0.12    571.84406    987.30321    29088.768 
     130         0.13    571.24524    987.30321    29104.888 
     140         0.14    558.26921    987.30321     29638.92 
     150         0.15    544.24503    987.30321    30322.151 
     160         0.16    548.47221    987.30321    30565.629 
     170         0.17    575.04749    987.30321    30242.341 
     180         0.18    608.32641    987.30321    29700.235 
     190         0.19    627.40457    987.30321    29518.252 
     200          0.2    622.98104    987.30321    30083.676 
     210         0.21    605.73362    987.30321    31088.996 
     220         0.22    597.47932    987.30321    31942.488 
     230         0.23    613.29093    987.30321    32155.337 
     240         0.24    650.11554    987.30321    31749.873 
     250         0.25    686.63569    987.30321    31383.826 
     260         0.26    700.53189    987.30321    31634.688 
     270         0.27    691.11908    987.30321    32458.489 
     280         0.28    677.37435    987.30321    33255.097 
     290         0.29    675.41154    987.30321    33579.218 
     300          0.3    687.10348    987.30321    33382.123 
     310         0.31    704.14562    987.30321    32986.686 
     320         0.32    717.10222    987.30321    32656.817 
     330         0.33    724.65157    987.30321    32493.189 
     340         0.34    733.86528    987.30321    32353.373 
     350         0.35    746.52701    987.30321    32268.108 
     360         0.36    749.63516    987.30321    32448.972 
     370         0.37    729.89056    987.30321    33147.416 
     380         0.38    692.23027    987.30321    34281.677 
     390         0.39    658.11242    987.30321    35381.735 
     400          0.4    641.32919    987.30321    36137.499 
     410         0.41    634.77197    987.30321    36665.088 
     420         0.42    632.65273    987.30321    36988.181 
     430         0.43    645.92308    987.30321    36802.989 
     440         0.44     682.6793    987.30321    35905.951 
     450         0.45    727.27801    987.30321    34779.498 
     460         0.46    752.25239    987.30321    34174.505 
     470         0.47    743.96165    987.30321    34565.509 
     480         0.48    713.97551    987.30321    35610.612 
     490         0.49    689.72918    987.30321    36503.215 
     500          0.5    692.87739    987.30321    36565.993 
     510         0.51    721.40079    987.30321    35853.579 
     520         0.52    751.42097    987.30321    35047.037 
     530         0.53    757.23833    987.30321    35064.458 
     540         0.54    730.93644    987.30321    36197.422 
     550         0.55    688.48587    987.30321    37779.348 
     560         0.56    661.29645    987.30321    38855.333 
     570         0.57    673.94804    987.30321    38764.388 
     580         0.58    716.11678    987.30321    37835.189 
     590         0.59    753.26309    987.30321     37106.82 
     600          0.6    767.47588    987.30321    37159.115 
     610         0.61    765.59065    987.30321    37860.258 
     620         0.62    762.04442    987.30321    38559.136 
     630         0.63    767.55856    987.30321    38850.337 
     640         0.64    785.92912    987.30321    38613.217 
     650         0.65    811.80935    987.30321    38158.416 
     660         0.66     832.6236    987.30321     37872.62 
     670         0.67    838.35053    987.30321    37919.966 
     680         0.68    829.73556    987.30321    38257.338 
     690         0.69    817.27712    987.30321    38589.645 
     700          0.7    809.91811    987.30321    38596.908 
     710         0.71     802.5066    987.30321    38339.482 
     720         0.72    783.45774    987.30321    38153.864 
     730         0.73    748.77285    987.30321     38282.92 
     740         0.74    704.14979    987.30321    38594.936 
     750         0.75    665.46205    987.30321    38638.044 
     760         0.76     649.3158    987.30321    38014.685 
     770         0.77     655.9555    987.30321    36630.867 
     780         0.78    673.69035    987.30321    34918.325 
     790         0.79    690.78626    987.30321    33255.203 
     800          0.8    698.46335    987.30321    32014.537 
     810         0.81    698.09045    987.30321    31203.432 
     820         0.82    698.83482    987.30321    30584.069 
     830         0.83    703.78966    987.30321    30020.509 
     840         0.84     712.1692    987.30321    29453.292 
     850         0.85     721.8647    987.30321    28896.633 
     860         0.86    727.25062    987.30321    28460.402 
     870         0.87    724.30596    987.30321    28306.858 
     880         0.88    714.51765    987.30321    28493.101 
     890         0.89    700.40888    987.30321    28864.322 
     900          0.9    681.82361    987.30321    29399.809 
     910         0.91    661.70431    987.30321    29909.028 
     920         0.92     651.1346    987.30321    30051.556 
     930         0.93     657.3885    987.30321    29680.648 
     940         0.94     672.6339    987.30321    29027.626 
     950         0.95    684.15496    987.30321    28399.685 
     960         0.96    688.47408    987.30321    27949.411 
     970         0.97    688.35476    987.30321    27696.118 
     980         0.98    682.37993    987.30321    27821.866 
     990         0.99    665.52552    987.30321    28461.901 
    1000            1    636.65856    987.30321     29534.81 
Loop time of 17.2464 on 1 procs for 900 steps with 64 atoms

Performance: 4.509 ns/day, 5.323 hours/ns, 52.185 timesteps/s
100.0% CPU use with 1 MPI tasks x no OpenMP threads

MPI task timing breakdown:
Section |  min time  |  avg time  |  max time  |%varavg| %total
---------------------------------------------------------------
Pair    | 17.238     | 17.238     | 17.238     |   0.0 | 99.95
Neigh   | 0.0033382  | 0.0033382  | 0.0033382  |   0.0 |  0.02
Comm    | 0.0027834  | 0.0027834  | 0.0027834  |   0.0 |  0.02
Output  | 0.00037459 | 0.00037459 | 0.00037459 |   0.0 |  0.00
Modify  | 0.0014982  | 0.0014982  | 0.0014982  |   0.0 |  0.01
Other   |            | 0.000625   |            |       |  0.00

Nlocal:        64.0000 ave          64 max          64 min
Histogram: 1 0 0 0 0 0 0 0 0 0
Nghost:        871.000 ave         871 max         871 min
Histogram: 1 0 0 0 0 0 0 0 0 0
Neighs:         0.00000 ave           0 max           0 min
Histogram: 1 0 0 0 0 0 0 0 0 0
FullNghs:      6026.00 ave        6026 max        6026 min
Histogram: 1 0 0 0 0 0 0 0 0 0

Total # of neighbors = 6026
Ave neighs/atom = 94.156250
Neighbor list builds = 16
Dangerous builds = 0
Setting up Verlet run ...
  Unit style    : metal
  Current step  : 1000
  Time step     : 0.001
Per MPI rank memory allocation (min/avg/max) = 3.089 | 3.089 | 3.089 Mbytes
Step Time Temp Volume Press 
    1000            1    636.65856    987.30321     29534.81 
    1100          1.1    674.91627    987.30321    30171.101 
    1200          1.2    739.73978    987.30321    37934.104 
    1300          1.3    790.34366    987.30321    37039.877 
    1400          1.4    748.16996    987.30321    33674.257 
    1500          1.5    728.43025    987.30321    30016.946 
    1600          1.6    694.16082    987.30321    27767.676 
    1700          1.7    693.57315    987.30321    30389.512 
    1800          1.8    632.91269    987.30321    32529.298 
    1900          1.9    650.04339    987.30321    31851.597 
    2000            2    632.83604    987.30321    33736.642 
    2100          2.1    648.92318    987.30321    35953.473 
    2200          2.2    817.94982    987.30321    36789.677 
    2300          2.3      832.931    987.30321    38094.188 
    2400          2.4    656.10397    987.30321    35141.822 
    2500          2.5     642.7304    987.30321    32056.448 
    2600          2.6    617.90953    987.30321    35112.427 
    2700          2.7    704.23844    987.30321    32477.077 
    2800          2.8    536.33799    987.30321    34496.973 
    2900          2.9    730.22407    987.30321    28680.081 
    3000            3    755.58716    987.30321    31105.965 
    3100          3.1    754.37375    987.30321    36757.084 
    3200          3.2    790.03453    987.30321    36508.855 
    3300          3.3    636.99558    987.30321    34853.713 
    3400          3.4    665.21418    987.30321    30179.001 
    3500          3.5     633.6387    987.30321    29695.534 
    3600          3.6    748.34311    987.30321    28486.095 
    3700          3.7    650.43634    987.30321     37671.13 
    3800          3.8    716.25689    987.30321    42156.364 
    3900          3.9    794.23545    987.30321    34994.271 
    4000            4    692.25522    987.30321     34632.72 
    4100          4.1    727.81917    987.30321    33925.384 
    4200          4.2    773.62536    987.30321    30972.127 
    4300          4.3    627.46268    987.30321    31520.158 
    4400          4.4    616.49195    987.30321    30018.799 
    4500          4.5    733.97659    987.30321    31785.879 
    4600          4.6    828.59499    987.30321    34532.226 
    4700          4.7    693.69955    987.30321    36324.189 
    4800          4.8    715.33554    987.30321    34038.868 
    4900          4.9    666.97153    987.30321    35372.136 
    5000            5    704.15844    987.30321    32598.029 
    5100          5.1     645.3396    987.30321    30002.807 
    5200          5.2    565.64892    987.30321    29291.306 
    5300          5.3    680.73663    987.30321    32028.595 
    5400          5.4    709.93527    987.30321    34929.193 
    5500          5.5    714.58295    987.30321    33999.972 
    5600          5.6     649.8401    987.30321     34825.22 
    5700          5.7    826.21216    987.30321    29711.629 
    5800          5.8    779.59962    987.30321    36114.882 
    5900          5.9    791.13559    987.30321    36825.773 
    6000            6    668.90956    987.30321    35613.523 
    6100          6.1    682.42289    987.30321    31866.403 
    6200          6.2    753.73714    987.30321    27654.064 
    6300          6.3    576.54207    987.30321    30930.957 
    6400          6.4    628.88174    987.30321    25395.981 
    6500          6.5    659.06034    987.30321    28453.361 
    6600          6.6    702.01465    987.30321    34256.777 
    6700          6.7    806.06146    987.30321    33806.672 
    6800          6.8    730.04126    987.30321    33417.218 
    6900          6.9    606.16931    987.30321    31353.276 
    7000            7    674.44128    987.30321    29964.268 
    7100          7.1    760.32926    987.30321    29046.633 
    7200          7.2    702.59638    987.30321    32703.723 
    7300          7.3    745.46798    987.30321    33619.606 
    7400          7.4    640.24346    987.30321    36829.002 
    7500          7.5    655.34123    987.30321    36246.224 
    7600          7.6    773.59312    987.30321    31262.526 
    7700          7.7    602.99329    987.30321    33631.838 
    7800          7.8    639.21183    987.30321    30049.239 
    7900          7.9    649.32287    987.30321    29569.806 
    8000            8    616.78465    987.30321    37298.284 
    8100          8.1    881.85201    987.30321    31300.737 
    8200          8.2    682.08996    987.30321    35985.835 
    8300          8.3    647.43049    987.30321    32202.175 
    8400          8.4    560.86452    987.30321    26689.771 
    8500          8.5    562.19121    987.30321     26002.58 
    8600          8.6    760.78887    987.30321    27850.409 
    8700          8.7    689.90777    987.30321    34760.876 
    8800          8.8    789.45877    987.30321    34769.143 
    8900          8.9    728.46328    987.30321    32699.818 
    9000            9    625.59355    987.30321     29646.77 
    9100          9.1      638.565    987.30321     29817.58 
    9200          9.2    646.40812    987.30321    32054.936 
    9300          9.3    781.95815    987.30321    29944.254 
    9400          9.4    676.99645    987.30321    37192.108 
    9500          9.5    774.41238    987.30321    39344.437 
    9600          9.6    757.16623    987.30321    38209.053 
    9700          9.7    650.45797    987.30321    32397.529 
    9800          9.8    644.48525    987.30321    31810.363 
    9900          9.9    672.40311    987.30321    33212.978 
   10000           10    822.80239    987.30321    32825.344 
Loop time of 191.56 on 1 procs for 9000 steps with 64 atoms

Performance: 4.059 ns/day, 5.912 hours/ns, 46.983 timesteps/s
100.0% CPU use with 1 MPI tasks x no OpenMP threads

MPI task timing breakdown:
Section |  min time  |  avg time  |  max time  |%varavg| %total
---------------------------------------------------------------
Pair    | 191.47     | 191.47     | 191.47     |   0.0 | 99.95
Neigh   | 0.038101   | 0.038101   | 0.038101   |   0.0 |  0.02
Comm    | 0.032036   | 0.032036   | 0.032036   |   0.0 |  0.02
Output  | 0.0005547  | 0.0005547  | 0.0005547  |   0.0 |  0.00
Modify  | 0.016382   | 0.016382   | 0.016382   |   0.0 |  0.01
Other   |            | 0.006908   |            |       |  0.00

Nlocal:        64.0000 ave          64 max          64 min
Histogram: 1 0 0 0 0 0 0 0 0 0
Nghost:        886.000 ave         886 max         886 min
Histogram: 1 0 0 0 0 0 0 0 0 0
Neighs:         0.00000 ave           0 max           0 min
Histogram: 1 0 0 0 0 0 0 0 0 0
FullNghs:      6030.00 ave        6030 max        6030 min
Histogram: 1 0 0 0 0 0 0 0 0 0

Total # of neighbors = 6030
Ave neighs/atom = 94.218750
Neighbor list builds = 161
Dangerous builds = 0
System init for write_data ...
Total wall time: 0:03:30
