LAMMPS data file via write_data, version 29 Sep 2021, timestep = 10000

64 atoms
1 atom types

0 10.479999999999203 xlo xhi
0 9.075946231660229 ylo yhi
0 10.379999999999999 zlo zhi
0 0 0 xy xz yz

Masses

1 65.38

Atoms # atomic

1 1 1.4194072855606419 5.093903879979099 4.050960500499748 0 0 0
2 1 1.1979707320602229 5.503821317936107 9.259724150719386 0 0 0
3 1 0.18220080296903904 7.330036735204857 3.687619106428446 0 0 0
4 1 0.19273184209206204 7.6760498784063 9.535088346401954 0 0 0
5 1 6.615326889397414 0.6392794583706505 3.4727398682481407 0 0 0
6 1 6.413713690289238 0.7367864377595419 9.21360524635942 0 0 0
7 1 5.340424355074981 3.103142915926186 3.8106416180035096 0 0 0
8 1 5.097345433224321 2.7974872161056714 9.299295107231474 0 0 0
9 1 1.2657701295731585 0.6503628654469373 4.417542076334428 0 0 0
10 1 1.307869937222818 0.8584196289983799 9.27885617257288 0 0 0
11 1 0.07493220387813863 2.922367244828363 4.218093462152121 0 0 0
12 1 0.1085993578535634 3.2290035467632894 9.566784862538348 0 0 0
13 1 3.838222568677894 0.859743624255431 3.7105775092861997 0 0 0
14 1 3.892174767420573 0.6288480863100097 8.574532063068327 0 0 0
15 1 2.8218017847214085 3.1362727257266827 3.6686209301738426 0 0 0
16 1 2.5472973152265483 3.0704510226092685 8.698347123696898 0 0 0
17 1 6.585037488739463 5.3774832950653595 4.5584106414447865 0 0 0
18 1 6.605452524954246 5.2175955615009615 8.959884859032359 0 0 0
19 1 5.2365994424631745 7.493425065591942 3.7878628070486537 0 0 0
20 1 5.399014267577384 7.455483773672008 9.286172104795963 0 0 0
21 1 9.053850894222336 5.0630794744450025 3.808839029525141 0 0 0
22 1 9.354805006105494 5.316311033546803 8.489080195599191 0 0 0
23 1 8.164856856931728 7.599245927146848 3.941063036743006 0 0 0
24 1 7.877655792399304 7.56498565422976 9.51755808550749 0 0 0
25 1 3.980398864131481 5.326201603551081 3.9939995492895934 0 0 0
26 1 3.6501395250638313 5.279518286970896 9.253938236476412 0 0 0
27 1 2.498922000336608 7.604460624302481 3.849195031310532 0 0 0
28 1 2.57346105936074 7.551799682698546 8.804168878086454 0 0 0
29 1 9.123716347216615 0.8300072678113531 4.086365082821143 0 0 0
30 1 9.189933317831233 0.8512769271778358 8.980849827271854 0 0 0
31 1 7.848741294145932 3.211216673351111 3.643574758655588 0 0 0
32 1 8.020837305936876 3.046849291210995 8.906049657582555 0 0 0
33 1 5.391170157749105 1.4762897654887792 1.2766952272989702 0 0 0
34 1 4.988870429053804 1.794116487845447 6.554844366550522 0 0 0
35 1 3.9326800999450655 3.8023512805975153 0.9399510300150565 0 0 0
36 1 3.925279290627264 3.851864721541475 6.421446292955332 0 0 0
37 1 2.4548036217298814 6.013771554219924 1.3828175795152655 0 0 0
38 1 2.6223041634625335 6.13394668235296 6.545185189500992 0 0 0
39 1 1.6603925604823198 8.344466486451948 1.5704719210111915 0 0 0
40 1 1.3516505784207056 8.234514023003806 6.574533078894704 0 0 0
41 1 0.06254108559471747 1.453530186884366 1.159634457763126 0 0 0
42 1 10.430973075119162 1.6029774686594847 6.88330954679023 -1 0 0
43 1 2.662728618584424 1.8783196717822435 1.4235194217897782 0 0 0
44 1 2.503431362067579 1.520253307174628 6.593954765077985 0 0 0
45 1 1.0708000086503082 3.944908762058942 1.519236632614136 0 0 0
46 1 1.138756284969625 3.768456125889407 6.497970746934413 0 0 0
47 1 10.26832106025777 5.904568201628184 1.239290429316634 -1 0 0
48 1 10.458793889410185 6.024099827206342 6.259250204899741 -1 0 0
49 1 9.165353934066667 3.6518338235581846 1.425096763084821 0 0 0
50 1 9.211189904141992 3.76754703967828 6.227759621814369 0 0 0
51 1 7.8634564640814215 6.052752418732189 1.0178276577319587 0 0 0
52 1 7.936230057036907 6.029430443053257 6.407118735104912 0 0 0
53 1 6.47775302295182 8.10085199476163 1.485848445588801 0 0 0
54 1 6.371241802802102 8.333166723812415 6.481569238830084 0 0 0
55 1 9.475898567917902 8.241208988858943 1.3872991078222188 0 0 0
56 1 9.162795480969136 8.276091466320583 6.485863728890625 0 0 0
57 1 7.978285716752394 1.5737636723203097 1.197667115013123 0 0 0
58 1 7.620526264129796 1.364464088557163 6.3825928867545025 0 0 0
59 1 6.477735634269547 3.865568748978845 1.0092336802972488 0 0 0
60 1 6.689708787129182 3.6575306446981064 6.330292773451258 0 0 0
61 1 5.01770138745727 5.990851534628751 1.3212659020716249 0 0 0
62 1 5.14971847507108 5.928452157125949 6.794569432872233 0 0 0
63 1 3.9228878821045354 8.62480183040311 1.0004556751549554 0 0 0
64 1 3.956809250314492 8.198612557955862 6.033388419681768 0 0 0

Velocities

1 -0.0005380477691993217 -0.8057432208367656 -1.3839518955542645
2 -2.7050219027456106 4.8845097443444905 1.9089002029853026
3 -0.020064817994774616 -4.3158064187200615 0.9849549040898302
4 -1.9336671446033393 9.173492476730353 2.8462818403781203
5 2.435255357550397 0.9754324667076893 -4.565886318742017
6 7.24982545911535 -2.3228814171668595 -1.125785612021723
7 -3.4303444716065545 -2.879140019460601 -2.300044540598871
8 -0.19427442843041773 0.08724462746121606 3.250255823574274
9 -3.0278171758805152 0.6802511445188701 -3.3197280651495613
10 -1.9589040182454378 1.9071983774025247 1.3852561644066845
11 -2.5778867867384214 4.992067502227099 4.291781722293707
12 -0.744120455765918 8.035604160338632 -0.8635477621537142
13 3.8446583042323907 -1.6548672384218848 4.396091392499798
14 -1.897811985824924 -3.1484396325078063 -6.315538839278361
15 3.5691086392655236 1.7903967783395307 -1.6076742171511749
16 3.6213374872867576 0.5803403654388095 -1.3164438154941043
17 4.694548003439986 2.5171915966304557 4.132455210791677
18 -4.592331894732506 -2.666481504229773 2.511607545361699
19 4.6458916577544285 -1.1559558494878046 0.07733881435596993
20 2.918199995905899 3.9228253128443558 -4.843934572109309
21 -6.245835892171767 -3.732794775166805 3.1025376091915415
22 -1.374100882571141 2.4400334985042975 -0.6065744311159592
23 3.0279280703257725 -1.0449788981440646 -3.3679419615443713
24 -2.4286986399954893 -3.959094176674682 -5.036937610219131
25 0.08080472218161705 3.5573048788665647 2.145766243051643
26 1.5971821679709004 -0.7474253399771318 1.2886812106310912
27 -3.745137320227795 -2.451674855144047 -4.7076754636696965
28 0.48408890317914366 -0.6869694457575135 1.995345349824558
29 1.5293199269759503 -1.925505532133677 -2.2669461458627618
30 1.7678636061717086 2.9196453437922965 -1.333175707850472
31 -1.1530739209799428 5.100306403021534 2.8334035866220972
32 -0.10360424461511689 -1.5396397171299658 2.1382471276241577
33 2.6864328906090957 -6.1411933690681 0.37549311264360785
34 -0.2709046146591865 -5.930072496318468 -0.893531131395809
35 -2.7305261820083797 3.155855862833414 1.5624109994558601
36 -4.1670605294155845 -5.304551774336485 -0.7037329943339239
37 -1.1890378309874678 1.4753896440210628 -2.4805998498839275
38 -7.849911452121777 -0.20750319628806646 3.320727091627764
39 1.1431486244468618 -0.6692037439142523 3.277495141931786
40 0.5816897745320768 -3.333031522418315 3.0760916260815567
41 1.4639996013018755 3.8166596170778666 -1.9599396602340062
42 8.720428316577395 2.8379737199404116 1.6093132056386845
43 0.43774227668240834 -0.7039149247079213 -5.122506759510792
44 2.07579193626082 -5.160999926192524 -4.7877699408510885
45 -3.0809085795480162 -0.21880926087844602 0.5528441982677825
46 0.4487574347182138 4.868596423788838 -6.591791302681549
47 -1.0890432278049642 -0.011598745647294038 4.718255782800817
48 -0.1861511808538471 -1.224513582379661 2.7376414679364136
49 0.6568041106620653 -1.1564290193826727 -1.618416850304419
50 -0.9524442625272436 3.4234256025873706 -0.798534280461005
51 -3.8085067705247417 -1.0194930711543562 0.0504207090199072
52 -6.460809173965053 0.17371157234421372 -0.2607054306098226
53 -0.15680391343973485 4.081607771292908 -1.5104583111260506
54 2.150136561488156 3.4845586894996377 0.8067580911917427
55 -7.432941326083014 -4.101476807771826 -0.48899000094466316
56 2.9047517047786893 -0.8164380102815035 2.9703465762578025
57 7.64468829423121 -4.669572852383893 4.661388888157647
58 1.4625958303514874 1.4088127470337306 -2.0980385070453926
59 2.9409909313448512 0.7167547794268357 1.8886083495566628
60 -3.712026825542108 -2.780073002111227 1.8818789384001728
61 1.901501385491179 -3.082721160948619 3.428351138618689
62 -1.5337255779394228 1.200873387409904 1.6693897386327534
63 -0.3826612323174592 2.431331506850335 -3.600611716935604
64 4.451224735804471 -5.070401494131887 0.0010938909323343125
