ITEM: TIMESTEP
10000
ITEM: NUMBER OF ATOMS
64
ITEM: BOX BOUNDS xy xz yz pp pp pp
0.0000000000000000e+00 1.0479999999999203e+01 0.0000000000000000e+00
0.0000000000000000e+00 9.0759462316602288e+00 0.0000000000000000e+00
0.0000000000000000e+00 1.0379999999999999e+01 0.0000000000000000e+00
ITEM: ATOMS id type x y z
1 1 1.41941 5.0939 4.05096
2 1 1.19797 5.50382 9.25972
3 1 0.182201 7.33004 3.68762
4 1 0.192732 7.67605 9.53509
5 1 6.61533 0.639279 3.47274
6 1 6.41371 0.736786 9.21361
7 1 5.34042 3.10314 3.81064
8 1 5.09735 2.79749 9.2993
9 1 1.26577 0.650363 4.41754
10 1 1.30787 0.85842 9.27886
11 1 0.0749322 2.92237 4.21809
12 1 0.108599 3.229 9.56678
13 1 3.83822 0.859744 3.71058
14 1 3.89217 0.628848 8.57453
15 1 2.8218 3.13627 3.66862
16 1 2.5473 3.07045 8.69835
17 1 6.58504 5.37748 4.55841
18 1 6.60545 5.2176 8.95988
19 1 5.2366 7.49343 3.78786
20 1 5.39901 7.45548 9.28617
21 1 9.05385 5.06308 3.80884
22 1 9.35481 5.31631 8.48908
23 1 8.16486 7.59925 3.94106
24 1 7.87766 7.56499 9.51756
25 1 3.9804 5.3262 3.994
26 1 3.65014 5.27952 9.25394
27 1 2.49892 7.60446 3.8492
28 1 2.57346 7.5518 8.80417
29 1 9.12372 0.830007 4.08637
30 1 9.18993 0.851277 8.98085
31 1 7.84874 3.21122 3.64357
32 1 8.02084 3.04685 8.90605
33 1 5.39117 1.47629 1.2767
34 1 4.98887 1.79412 6.55484
35 1 3.93268 3.80235 0.939951
36 1 3.92528 3.85186 6.42145
37 1 2.4548 6.01377 1.38282
38 1 2.6223 6.13395 6.54519
39 1 1.66039 8.34447 1.57047
40 1 1.35165 8.23451 6.57453
41 1 0.0625411 1.45353 1.15963
42 1 10.431 1.60298 6.88331
43 1 2.66273 1.87832 1.42352
44 1 2.50343 1.52025 6.59395
45 1 1.0708 3.94491 1.51924
46 1 1.13876 3.76846 6.49797
47 1 10.2683 5.90457 1.23929
48 1 10.4588 6.0241 6.25925
49 1 9.16535 3.65183 1.4251
50 1 9.21119 3.76755 6.22776
51 1 7.86346 6.05275 1.01783
52 1 7.93623 6.02943 6.40712
53 1 6.47775 8.10085 1.48585
54 1 6.37124 8.33317 6.48157
55 1 9.4759 8.24121 1.3873
56 1 9.1628 8.27609 6.48586
57 1 7.97829 1.57376 1.19767
58 1 7.62053 1.36446 6.38259
59 1 6.47774 3.86557 1.00923
60 1 6.68971 3.65753 6.33029
61 1 5.0177 5.99085 1.32127
62 1 5.14972 5.92845 6.79457
63 1 3.92289 8.6248 1.00046
64 1 3.95681 8.19861 6.03339
