LAMMPS data file via write_data, version 29 Sep 2021, timestep = 10000

64 atoms
1 atom types

0 10.560000000000285 xlo xhi
0 9.145228263963919 ylo yhi
0 10.5 zlo zhi
0 0 0 xy xz yz

Masses

1 65.38

Atoms # atomic

1 1 1.2413598998719984 5.1250934780693544 3.9371893627122323 0 0 0
2 1 0.9574838083610328 5.4322750798431345 9.485798123582292 0 0 0
3 1 10.556397420743764 7.570272067301161 3.4095327267607436 -1 0 0
4 1 0.02431530848555587 7.798386987541452 9.052906243825623 0 0 0
5 1 6.9282419739353 0.7497169605764205 3.873656119288237 0 0 0
6 1 6.7962090953037535 0.8209201942202753 9.240042120246583 0 0 0
7 1 5.332759708029709 2.784628629637085 4.292546460048519 0 0 0
8 1 5.900613350916641 3.0202367333165263 9.866297480106871 0 0 0
9 1 1.5786853573678181 0.6021280083188039 3.5579310798496326 0 0 0
10 1 1.4117218634812614 0.8675493209146421 9.099180978068231 0 0 0
11 1 0.19684906243479322 2.8602631239161593 3.612221695480071 0 0 0
12 1 10.516384115717178 3.399219344427935 8.378414760859078 -1 0 0
13 1 4.35188211148706 0.6298680961230777 4.166497368495057 0 0 0
14 1 3.9921755386159963 1.0614597263621723 8.885229975079232 0 0 0
15 1 2.5603537481947365 2.8355824173008544 4.076177328879542 0 0 0
16 1 2.5102698584249556 3.1440481329300747 9.617841737294624 0 0 0
17 1 6.662786668187545 5.14096346029038 4.069793025098665 0 0 0
18 1 6.489893855814735 5.447452235642649 9.05010970294079 0 0 0
19 1 5.246078102229632 7.134514591853701 4.379672853719273 0 0 0
20 1 5.280148816541695 7.973493856667612 9.195956409477038 0 0 0
21 1 9.360493966145626 5.497793997415617 4.179611289325993 0 0 0
22 1 9.140009189349028 5.541365272508977 8.710271167790381 0 0 0
23 1 7.91630953358733 7.626689693550395 4.111721067205536 0 0 0
24 1 7.906396044060036 7.801644501690348 9.070078733713295 0 0 0
25 1 3.8831272155118626 5.0632555775451715 4.528669606152101 0 0 0
26 1 3.573749045437781 5.356342202291815 9.052218052250703 0 0 0
27 1 2.8332559537353026 7.320775652780393 3.7201019286656467 0 0 0
28 1 2.4661863410514617 7.619738184104076 9.564534895730684 0 0 0
29 1 9.591382140685495 0.6980931028719661 4.132365607102562 0 0 0
30 1 9.434084783515436 0.846650734539011 9.039692518417649 0 0 0
31 1 7.996851810274954 2.886674784123681 4.2211152847170395 0 0 0
32 1 8.031550455707876 3.391577606937785 8.722919570932397 0 0 0
33 1 5.0410997349511435 1.2923725396278862 1.0226567386221328 0 0 0
34 1 5.6089470800709735 1.342960536366673 6.709729439516244 0 0 0
35 1 3.9156994458265917 3.72532575487148 1.292835527214741 0 0 0
36 1 4.188891649186931 3.514844524550211 7.326986522987665 0 0 0
37 1 2.7026716006326126 5.9832103592492505 1.4359509291635226 0 0 0
38 1 2.5747446914241823 6.059076542924428 6.304204990402201 0 0 0
39 1 1.3032110540341502 8.39127857281127 1.342644274040041 0 0 0
40 1 1.3837460470323244 8.297290263151808 5.834609125119995 0 0 0
41 1 10.499147509083576 1.7632546272474308 1.0787960520291255 -1 0 0
42 1 10.544834904767203 1.3432808316060976 6.572330777464841 -1 0 0
43 1 2.4878718762202223 1.7369152355993243 1.347339785340157 0 0 0
44 1 3.0089509693263716 1.7034161658557578 6.229890168938672 0 0 0
45 1 0.965575665474851 3.95441220585171 1.2547207612521054 0 0 0
46 1 1.0392628272615791 3.9125722806605148 6.041731495598457 0 0 0
47 1 10.308025501306206 6.34447350819276 1.234857545778769 -1 0 0
48 1 0.117537259222064 6.338647006539886 6.688473056504627 0 0 0
49 1 8.826455729025527 3.8904610976704572 1.912897994800789 0 0 0
50 1 9.178027157070495 3.5546659836200996 6.16604705550953 0 0 0
51 1 7.7842879959014235 6.334119353036037 1.1439031683399206 0 0 0
52 1 7.658964949291105 6.2254610384797395 6.199175559780943 0 0 0
53 1 6.376982991292057 8.370253472143629 1.6748006505307138 0 0 0
54 1 6.6850502979610225 8.174598015090227 6.956025906996618 0 0 0
55 1 9.183133878696502 8.665484672355577 1.1571053073074182 0 0 0
56 1 9.301455653006792 8.453269425555332 6.537739082029096 0 0 0
57 1 7.894065486988847 1.5974150304307393 0.9442331429909443 0 0 0
58 1 7.841305477910678 1.4224191993769277 6.567905964799117 0 0 0
59 1 6.393784989636665 3.4778542885417485 2.0075169100032153 0 0 0
60 1 6.500183748269245 4.063976462476967 6.47701628378901 0 0 0
61 1 5.392785014744174 5.736739613314416 0.9988570907805818 0 0 0
62 1 5.098660205571144 6.147512528771319 7.100547786457565 0 0 0
63 1 3.9158934222123447 8.360049129334286 1.4226523584005768 0 0 0
64 1 4.09073904339962 8.421020425929376 6.715523273691271 0 0 0

Velocities

1 4.36575345795311 -4.016906334039314 -3.9446981917932407
2 -3.644437066136403 0.7005274091141991 -2.5878869432389155
3 4.915204137015797 0.9462862418509865 -0.3673654591495202
4 -0.42993935327892774 0.825176312303309 1.1012333297916073
5 4.550806438160608 -1.7945339949973156 -3.4679373993602742
6 3.7846206833378253 1.5943981599323993 -3.384927739171462
7 -0.15803435394049 -4.18534858450497 -0.1861019768975822
8 6.197800388184746 5.2791894528961 -2.972795515568486
9 -1.7088484283045755 -1.4114595190323116 1.7864054955169313
10 -1.5054098452595612 0.47438315334323394 3.5260240815711237
11 2.7924890683984716 -2.5499083155719107 -6.576057859840895
12 -1.6556870129134764 -3.1310303309292165 5.697908204359207
13 0.3832038104955002 3.2237774482337826 -2.8959190923565385
14 -1.192671874521601 -0.34435527397563825 -2.1589178539330534
15 0.8142824690488816 -0.47750824675677844 1.767387724993015
16 -0.8206258289273511 10.005957382153792 0.43010909139202336
17 4.9090617641417875 -1.7641749169548542 0.5381793295610974
18 1.1224706280461934 0.25480026537541883 -1.4092237856980083
19 0.2083849494378342 -0.506893961995621 5.127989874827074
20 -0.31628325782766936 1.6283268303007432 2.2626702034804533
21 -1.3518516818601052 1.1721550724291592 -0.5493531389295193
22 2.4476241948167887 3.1886262876404916 3.399257439855778
23 1.9169722676108933 1.862024631839212 3.218404287690163
24 1.0278587801680268 1.777387137464816 0.763528926127161
25 -2.3016211057824627 2.3376987997493512 2.4856690666683137
26 5.2398171856733 2.2905481960548513 -0.9182643871909939
27 -4.022308475746303 4.14406534400669 -0.1134502148288176
28 -1.0152267768694037 6.877316739601396 1.415851110761358
29 1.5915858682573236 -3.0013669156400358 -0.5773431473494585
30 4.572138831764972 1.1375754930457516 -2.8339634916175127
31 1.8391440435419883 -2.0455923519941197 1.7539522136669197
32 -0.3538617759121179 0.48373144471767865 2.2047731707126004
33 -5.364081603629485 -0.059597530866784106 -0.04052032999402479
34 -5.108056695400532 -0.3109559589919597 2.620613039325871
35 -2.368526811845432 -5.779365512342062 4.3882533437364595
36 2.014408742346843 -5.037186280682554 0.08819725418296415
37 -1.585914263085415 2.524371859870357 -2.1759746876310637
38 0.3474012902734476 -1.4628502794936002 1.1074509460547184
39 -0.18715796993233766 2.0494064912285106 -0.2912639036354295
40 3.084394699083215 0.41859642560454313 -0.7766831216086867
41 -0.3322965177673502 4.857173034466529 -1.966268275017151
42 1.5371252507476723 3.09727338359508 -1.7640029507701953
43 0.6374137560525386 3.443973452145817 -3.352893897961299
44 2.856937429121858 -0.21637423330327651 5.7893433056449926
45 -1.1577646735779483 -0.9137630504810038 0.28335390587547277
46 -1.2123569096492863 0.6805861750601317 1.0334944199773928
47 -2.209846750027126 -1.3485958001008396 -2.7341006736902655
48 -2.9154470985578724 1.4754030250355916 2.0439485362844634
49 2.8524238344750548 -3.015067547920131 -4.83940422701319
50 -4.3954238821439215 -4.137773218327197 -1.8391607163181372
51 0.7253084461904591 1.1041941436300051 -3.269836792516233
52 -2.5944747872753404 1.2401459917459718 -0.7761780884337774
53 0.2440149904834489 0.4509010563618964 1.1352222481174319
54 -1.5701433817603594 -8.027179049551467 1.1617234443921316
55 -5.524932397667126 -0.9346184757922998 -3.119052094514699
56 -4.648484923156161 -0.270435366252617 2.3284511805041324
57 -1.8707355348287624 -3.7075656812637767 -1.1464013331206302
58 -1.6348099047112878 -3.995073388151999 1.4611111841349835
59 0.2794122029204447 -0.12101140446207298 -0.7059937744957557
60 3.5957440163592564 -6.2640222945704895 1.9905478090830564
61 -1.3386963279256667 -4.5830248484004 2.4032763986591523
62 -0.9065783868171821 -0.2932010338059559 2.851537071731073
63 1.6997637755825816 4.132687007303197 -3.65787499943351
64 -5.151031742652349 0.028075853051664306 -0.7660515756008391
