 # Something
 108 atoms
 1 atom types
 0   12.434999999999999      xlo xhi 
 0   12.434999999999999      ylo yhi 
 0   12.434999999999999      zlo zhi 
   0.0000000000000000        0.0000000000000000        0.0000000000000000      xy xz yz
 Atoms
 
           1           1   6.2174999999999994        10.362499999999999        0.0000000000000000     
           2           1   4.1449999999999996        10.362499999999999        10.362499999999999     
           3           1   2.0725000000000002        10.362499999999999        8.2900000000000009     
           4           1   0.0000000000000000        10.362499999999999        6.2174999999999994     
           5           1   8.2900000000000009        8.2900000000000009        0.0000000000000000     
           6           1   6.2174999999999994        8.2900000000000009        10.362499999999999     
           7           1   4.1449999999999996        8.2900000000000009        8.2900000000000009     
           8           1   4.1449999999999996        6.2174999999999994        2.0725000000000002     
           9           1   10.362499999999999        4.1449999999999996        6.2174999999999994     
          10           1   8.2900000000000009        4.1449999999999996        4.1449999999999996     
          11           1   6.2174999999999994        4.1449999999999996        2.0725000000000002     
          12           1   10.362499999999999        2.0725000000000002        4.1449999999999996     
          13           1   8.2900000000000009        2.0725000000000002        2.0725000000000002     
          14           1   10.362499999999999        0.0000000000000000        2.0725000000000002     
          15           1   2.0725000000000002        6.2174999999999994        4.1449999999999996     
          16           1   0.0000000000000000        6.2174999999999994        2.0725000000000002     
          17           1   10.362499999999999        4.1449999999999996        10.362499999999999     
          18           1   8.2900000000000009        4.1449999999999996        8.2900000000000009     
          19           1   6.2174999999999994        4.1449999999999996        6.2174999999999994     
          20           1   4.1449999999999996        4.1449999999999996        4.1449999999999996     
          21           1   2.0725000000000002        4.1449999999999996        2.0725000000000002     
          22           1   4.1449999999999996        6.2174999999999994        6.2174999999999994     
          23           1   6.2174999999999994        6.2174999999999994        8.2900000000000009     
          24           1   8.2900000000000009        6.2174999999999994        10.362499999999999     
          25           1   10.362499999999999        6.2174999999999994        0.0000000000000000     
          26           1   0.0000000000000000        8.2900000000000009        4.1449999999999996     
          27           1   2.0725000000000002        8.2900000000000009        6.2174999999999994     
          28           1   10.362499999999999        8.2900000000000009        6.2174999999999994     
          29           1   8.2900000000000009        8.2900000000000009        4.1449999999999996     
          30           1   6.2174999999999994        8.2900000000000009        2.0725000000000002     
          31           1   10.362499999999999        6.2174999999999994        4.1449999999999996     
          32           1   8.2900000000000009        6.2174999999999994        2.0725000000000002     
          33           1   10.362499999999999        4.1449999999999996        2.0725000000000002     
          34           1   10.362499999999999        10.362499999999999        0.0000000000000000     
          35           1   10.362499999999999        10.362499999999999        4.1449999999999996     
          36           1   8.2900000000000009        10.362499999999999        2.0725000000000002     
          37           1   10.362499999999999        8.2900000000000009        2.0725000000000002     
          38           1   10.362499999999999        10.362499999999999        8.2900000000000009     
          39           1   8.2900000000000009        10.362499999999999        6.2174999999999994     
          40           1   6.2174999999999994        10.362499999999999        4.1449999999999996     
          41           1   4.1449999999999996        10.362499999999999        2.0725000000000002     
          42           1   8.2900000000000009        8.2900000000000009        8.2900000000000009     
          43           1   6.2174999999999994        8.2900000000000009        6.2174999999999994     
          44           1   4.1449999999999996        8.2900000000000009        4.1449999999999996     
          45           1   2.0725000000000002        8.2900000000000009        2.0725000000000002     
          46           1   10.362499999999999        6.2174999999999994        8.2900000000000009     
          47           1   8.2900000000000009        6.2174999999999994        6.2174999999999994     
          48           1   6.2174999999999994        6.2174999999999994        4.1449999999999996     
          49           1   10.362499999999999        8.2900000000000009        10.362499999999999     
          50           1   0.0000000000000000        10.362499999999999        2.0725000000000002     
          51           1   2.0725000000000002        10.362499999999999        4.1449999999999996     
          52           1   4.1449999999999996        10.362499999999999        6.2174999999999994     
          53           1   6.2174999999999994        10.362499999999999        8.2900000000000009     
          54           1   8.2900000000000009        10.362499999999999        10.362499999999999     
          55           1   0.0000000000000000        6.2174999999999994        10.362499999999999     
          56           1   4.1449999999999996        4.1449999999999996        0.0000000000000000     
          57           1   2.0725000000000002        4.1449999999999996        10.362499999999999     
          58           1   0.0000000000000000        4.1449999999999996        8.2900000000000009     
          59           1   6.2174999999999994        2.0725000000000002        0.0000000000000000     
          60           1   4.1449999999999996        2.0725000000000002        10.362499999999999     
          61           1   2.0725000000000002        2.0725000000000002        8.2900000000000009     
          62           1   10.362499999999999        0.0000000000000000        10.362499999999999     
          63           1   8.2900000000000009        0.0000000000000000        8.2900000000000009     
          64           1   6.2174999999999994        0.0000000000000000        6.2174999999999994     
          65           1   4.1449999999999996        0.0000000000000000        4.1449999999999996     
          66           1   2.0725000000000002        0.0000000000000000        2.0725000000000002     
          67           1   0.0000000000000000        8.2900000000000009        0.0000000000000000     
          68           1   2.0725000000000002        6.2174999999999994        0.0000000000000000     
          69           1   0.0000000000000000        4.1449999999999996        0.0000000000000000     
          70           1   2.0725000000000002        2.0725000000000002        0.0000000000000000     
          71           1   0.0000000000000000        2.0725000000000002        10.362499999999999     
          72           1   4.1449999999999996        0.0000000000000000        0.0000000000000000     
          73           1   2.0725000000000002        0.0000000000000000        10.362499999999999     
          74           1   0.0000000000000000        0.0000000000000000        8.2900000000000009     
          75           1   0.0000000000000000        0.0000000000000000        0.0000000000000000     
          76           1   0.0000000000000000        0.0000000000000000        4.1449999999999996     
          77           1   2.0725000000000002        0.0000000000000000        6.2174999999999994     
          78           1   4.1449999999999996        0.0000000000000000        8.2900000000000009     
          79           1   6.2174999999999994        0.0000000000000000        10.362499999999999     
          80           1   8.2900000000000009        0.0000000000000000        0.0000000000000000     
          81           1   0.0000000000000000        2.0725000000000002        6.2174999999999994     
          82           1   2.0725000000000002        10.362499999999999        0.0000000000000000     
          83           1   0.0000000000000000        10.362499999999999        10.362499999999999     
          84           1   4.1449999999999996        8.2900000000000009        0.0000000000000000     
          85           1   2.0725000000000002        8.2900000000000009        10.362499999999999     
          86           1   0.0000000000000000        8.2900000000000009        8.2900000000000009     
          87           1   6.2174999999999994        6.2174999999999994        0.0000000000000000     
          88           1   4.1449999999999996        6.2174999999999994        10.362499999999999     
          89           1   10.362499999999999        2.0725000000000002        8.2900000000000009     
          90           1   8.2900000000000009        2.0725000000000002        6.2174999999999994     
          91           1   6.2174999999999994        2.0725000000000002        4.1449999999999996     
          92           1   4.1449999999999996        2.0725000000000002        2.0725000000000002     
          93           1   10.362499999999999        0.0000000000000000        6.2174999999999994     
          94           1   8.2900000000000009        0.0000000000000000        4.1449999999999996     
          95           1   6.2174999999999994        0.0000000000000000        2.0725000000000002     
          96           1   0.0000000000000000        4.1449999999999996        4.1449999999999996     
          97           1   10.362499999999999        2.0725000000000002        0.0000000000000000     
          98           1   8.2900000000000009        2.0725000000000002        10.362499999999999     
          99           1   6.2174999999999994        2.0725000000000002        8.2900000000000009     
         100           1   4.1449999999999996        2.0725000000000002        6.2174999999999994     
         101           1   2.0725000000000002        2.0725000000000002        4.1449999999999996     
         102           1   0.0000000000000000        2.0725000000000002        2.0725000000000002     
         103           1   2.0725000000000002        4.1449999999999996        6.2174999999999994     
         104           1   4.1449999999999996        4.1449999999999996        8.2900000000000009     
         105           1   6.2174999999999994        4.1449999999999996        10.362499999999999     
         106           1   8.2900000000000009        4.1449999999999996        0.0000000000000000     
         107           1   0.0000000000000000        6.2174999999999994        6.2174999999999994     
         108           1   2.0725000000000002        6.2174999999999994        8.2900000000000009     
