ITEM: TIMESTEP
10000
ITEM: NUMBER OF ATOMS
64
ITEM: BOX BOUNDS xy xz yz pp pp pp
0.0000000000000000e+00 1.0560000000000285e+01 0.0000000000000000e+00
0.0000000000000000e+00 9.1452282639639186e+00 0.0000000000000000e+00
0.0000000000000000e+00 1.0060000000000000e+01 0.0000000000000000e+00
ITEM: ATOMS id type x y z
1 1 1.44462 5.3616 3.45212
2 1 1.26894 5.18641 8.99091
3 1 0.12677 7.6397 3.61214
4 1 10.4501 7.42323 9.06536
5 1 6.86623 0.821964 3.28815
6 1 6.60296 0.489805 9.00339
7 1 5.18562 2.82502 3.90461
8 1 5.16771 2.93707 8.90663
9 1 1.31752 0.885552 4.01511
10 1 1.12032 0.652256 8.62595
11 1 10.5452 3.05137 3.82922
12 1 0.060987 3.06782 9.08913
13 1 3.97043 0.847296 3.59282
14 1 3.65167 0.738675 8.99903
15 1 2.55278 3.11402 3.66211
16 1 2.65052 3.25792 8.55561
17 1 6.72102 5.42212 3.98424
18 1 6.4415 5.31108 8.85754
19 1 5.42295 7.61763 3.42746
20 1 5.16651 7.57386 8.96503
21 1 9.34055 5.48767 3.73297
22 1 8.98522 5.11218 9.12961
23 1 8.0516 7.67668 3.73737
24 1 7.8803 7.39677 8.60604
25 1 4.13813 5.15195 3.55673
26 1 3.86287 5.16554 8.99794
27 1 2.70635 7.6037 3.54022
28 1 2.74221 7.55016 8.33938
29 1 9.43734 0.819712 4.18155
30 1 9.21381 0.741699 9.41731
31 1 7.92051 3.37684 4.17897
32 1 7.88818 2.82769 8.13605
33 1 5.2213 1.29085 0.785473
34 1 5.06521 1.36341 6.4766
35 1 4.17028 3.73559 0.994187
36 1 4.09405 3.77056 6.00923
37 1 2.70684 6.14325 1.23969
38 1 2.60832 6.16113 6.04251
39 1 1.29801 8.55073 1.28167
40 1 1.38847 8.50939 6.22194
41 1 10.3926 1.73411 1.63605
42 1 10.4335 1.64711 6.66446
43 1 2.32064 1.71453 0.943063
44 1 2.66184 1.44143 6.53632
45 1 1.29558 3.86299 1.19151
46 1 1.58411 3.69555 6.32923
47 1 0.116394 5.97121 1.2785
48 1 0.110171 6.27597 6.55808
49 1 9.16533 4.01678 1.51886
50 1 9.69305 4.06883 6.44278
51 1 8.0979 6.29499 1.38959
52 1 7.88589 6.20517 6.25586
53 1 6.73754 8.31512 1.32493
54 1 6.33232 8.36147 5.66209
55 1 9.21966 8.58043 1.45879
56 1 9.24732 8.26312 6.1834
57 1 7.60362 1.78602 0.927264
58 1 7.69154 1.28491 5.96884
59 1 6.56201 3.98366 1.69801
60 1 6.65698 3.7497 6.4519
61 1 5.45742 5.99158 1.10035
62 1 5.25325 6.02728 6.58145
63 1 4.0711 8.19405 1.4381
64 1 3.87633 8.5214 5.94856
