LAMMPS data file via write_data, version 29 Sep 2021, timestep = 10000

64 atoms
1 atom types

0 10.519999999999747 xlo xhi
0 9.110587247812074 ylo yhi
0 10.38 zlo zhi
0 0 0 xy xz yz

Masses

1 65.38

Atoms # atomic

1 1 1.5451311497792606 5.455362556738903 3.715074820716307 0 0 0
2 1 1.284697167261304 5.420231883077582 9.349830987598699 0 0 0
3 1 0.1608299107626929 7.554214634931649 4.01455362595025 0 0 0
4 1 10.5054604776167 7.8315113792374 8.895642909101719 -1 0 0
5 1 6.319692199833949 0.635974248217953 3.816185137982826 0 0 0
6 1 6.882694790550883 0.6959834893738366 9.317816713604426 0 0 0
7 1 5.347041368073411 2.8835120507611482 3.642676071232786 0 0 0
8 1 5.412901818404945 2.8346074370740872 9.333023633379838 0 0 0
9 1 1.1259821298320245 0.7829850420938461 4.222819126679107 0 0 0
10 1 1.4085229054523394 0.8643228140146116 8.736136058563472 0 0 0
11 1 0.004046797594088332 3.269829609111918 3.635475799965008 0 0 0
12 1 10.438940945354064 3.1106655762508026 9.538431413722682 -1 0 0
13 1 3.7742197486742746 0.6199649923363327 3.4767028160960725 0 0 0
14 1 4.221009424813599 0.5972935077283151 8.828899554290834 0 0 0
15 1 2.70753550894281 2.9796919006780342 3.8788791808413023 0 0 0
16 1 2.5555234418487336 3.0421365916585517 9.303516791310996 0 0 0
17 1 6.556138758153498 5.238664714413093 3.590940023497054 0 0 0
18 1 6.519712844873283 5.191455515964114 9.308868473797471 0 0 0
19 1 5.079037958005519 7.325682298298688 3.8635140163646535 0 0 0
20 1 5.2938427865166675 7.428654817079034 9.303022505864615 0 0 0
21 1 9.355755180358562 5.6007866326986555 3.8489905294765374 0 0 0
22 1 9.081632937305134 5.631385653561798 8.471224184932879 0 0 0
23 1 7.767716096351155 7.751525382401244 3.7417467951598 0 0 0
24 1 7.978972092512231 7.388912920623454 9.564275351608728 0 0 0
25 1 4.054389836497704 5.050875557794999 3.976476669972436 0 0 0
26 1 3.9757428659951723 5.056151876852163 8.808906944575764 0 0 0
27 1 2.7204669583923664 7.757833453307068 4.139811454424671 0 0 0
28 1 2.996581507850705 7.678446268234536 8.463006762107678 0 0 0
29 1 9.112542890059606 0.9705354796904383 3.8067296825836094 0 0 0
30 1 9.351301082540902 0.8714229183887371 9.060984845178368 0 0 0
31 1 7.841394222881876 3.413036629026129 4.276575161069051 0 0 0
32 1 8.165421655821472 3.064857147146524 9.059141349617814 0 0 0
33 1 5.016157448269347 1.3469180028896173 1.2117204820985097 0 0 0
34 1 5.339264585836849 1.791373007234333 6.396229163981232 0 0 0
35 1 4.0276804083742315 3.8017408927662157 1.1380898730708895 0 0 0
36 1 3.912034029142239 3.778042461202038 6.344261230355715 0 0 0
37 1 2.755140330600905 6.0957534472115915 1.4229929085942685 0 0 0
38 1 2.563112328137445 5.9580297917486815 6.472580064535185 0 0 0
39 1 1.5341344881371133 8.496052885796122 1.7722212105498703 0 0 0
40 1 1.0260007688158084 8.401745858758838 6.59497075107444 0 0 0
41 1 0.22365657637216804 1.5432508193480092 1.528529853330039 0 0 0
42 1 10.29542273263852 1.614187219766005 6.571099872252979 -1 0 0
43 1 2.5387063957663436 1.4749067013374264 0.8232186216503657 0 0 0
44 1 2.511325832507231 1.710583504931515 6.428514426007761 0 0 0
45 1 1.2077576567843376 4.0644101891271704 1.46481254339865 0 0 0
46 1 1.061815470348081 3.8443681657111917 7.112390813503151 0 0 0
47 1 10.404560136272803 6.255967380430995 1.078853297412544 -1 0 0
48 1 10.486506646518286 5.922917220399683 6.26352886567254 -1 0 0
49 1 8.807824573503082 3.637826888237937 1.3713847717624632 0 0 0
50 1 9.152444093513258 3.687612933738125 6.571859115946691 0 0 0
51 1 8.011003556312907 6.0344326019434025 1.6095427389735395 0 0 0
52 1 7.739691144911239 5.950357172540457 6.1023122678065675 0 0 0
53 1 6.5421242503960295 8.308061981421663 1.2038462286665732 0 0 0
54 1 6.421751709421557 8.383857907381747 6.339368700788564 0 0 0
55 1 9.392301304149884 8.275563906910252 1.7235364906216242 0 0 0
56 1 9.01202512425821 8.043543457746313 6.8266888067759215 0 0 0
57 1 8.118107684545755 1.2548196097160853 1.4367683504617024 0 0 0
58 1 7.9317094491602615 1.419568067586604 6.285689671183455 0 0 0
59 1 6.5116068842775805 3.4956909382119656 1.1141188581191857 0 0 0
60 1 6.491765953253527 3.707969514978845 6.900347871791344 0 0 0
61 1 5.326702302343524 6.038631200224246 1.1799510921069494 0 0 0
62 1 5.20890538537157 6.121639047853811 6.661234471486482 0 0 0
63 1 3.974975599033442 8.347125381249231 1.1225337923718834 0 0 0
64 1 4.068905692112107 8.733328792821727 6.096923402379315 0 0 0

Velocities

1 1.1381221128278587 4.146806411160983 0.5164714009198839
2 4.111094525662085 0.519901943743249 1.4863046405314848
3 0.6578624298223696 0.3422230594990149 0.24699517347567848
4 -0.2137981156496704 -3.748845392257611 1.4180568861843312
5 5.130357923481938 4.277931160665042 4.242873287352764
6 0.2684432927285652 -0.18846997601548782 -1.0547676632919611
7 7.082886448062355 1.7527757087057712 0.16773784126052507
8 -0.19728181315155716 1.0361432908567014 4.029043654541507
9 1.6978446107063612 6.203198553621022 -3.073595894727869
10 -2.996116047405913 -2.1517431078653395 7.192268550595938
11 -2.6475746234140987 -3.7933106199354 -1.8386278975001817
12 3.201870964199302 -1.56003682822533 -4.035311470742161
13 -3.0416542361624432 -5.794817192693907 1.533003535861829
14 -3.226679049336494 -0.43893712795924666 -2.1141079789880886
15 2.5219732198743943 6.4702400595199645 0.6852167482492723
16 -1.7616603264702868 1.0180860052621559 1.239455139333473
17 -0.0804650357533519 2.9693283830802257 2.3326020095096873
18 -1.3553313217039056 0.11700120157432631 0.6137954766632618
19 4.011168003985261 4.542160743866211 -1.5008330634624378
20 -0.667832338307035 -3.4193286595413253 3.2024965332663586
21 -2.3759572130433435 0.6105698775669606 1.0958391165886248
22 -4.023386233314129 2.401031887999379 -1.7542035774447633
23 2.3603508532029607 0.8095488674111866 0.7596349230399153
24 1.6672420647905484 1.0905248244989705 -0.2885554506906998
25 -2.9998673900948294 -0.1333121428801388 0.11490577679341996
26 3.4674070456497152 -4.41687516673924 -4.44918524682918
27 1.8322543186815776 -0.6099314164495342 -1.1224048841438594
28 -1.6497831985732414 6.19758439535688 -5.873014491734834
29 1.660982228253216 -4.5118737353496785 -4.099457008273095
30 -0.4596799320635879 -2.9872243349173386 0.1652933456505539
31 -3.704430226407245 3.976342683251039 1.4664936721491972
32 -6.127382396100479 -1.8118906075129684 2.686305756963665
33 -0.8652162358762738 1.1846968316649984 2.644846873750715
34 -0.38389482400612635 2.010892932212851 3.7635757825603187
35 -4.962810202541232 5.589575537075409 3.528239708876519
36 4.086688632055399 3.3531486769473955 2.8182326010601946
37 1.4387180316549715 -1.7035867589319336 -0.2847904211314095
38 3.1373569074842718 -2.2700853633267974 -2.6329949125885292
39 -2.735598416474894 -3.2638147491366034 2.4661336561561753
40 -1.0302736628857838 -1.9829991339900148 -1.9745284178680704
41 -2.361418972438531 -0.018312195946716875 -4.639064726510815
42 0.18597178084547072 3.1580976301136197 5.328359659362967
43 -0.6294747471514582 1.9694305953637916 3.11415879451892
44 3.9106921338186504 1.5122775571764222 -5.440495809369396
45 2.574854753095856 -0.014815815740297632 5.4006452691982485
46 -2.573022358922696 0.2586645967723911 2.945486473335263
47 -4.683099484833971 -8.426798213085684 -0.04629278367009016
48 -1.1389686574918783 -1.6464048410430292 -1.971036270104612
49 -1.213255517753204 -2.0457217288836365 1.5004974682556211
50 3.5057806657623245 -1.7245186082345394 -5.125342613930474
51 -4.945742924535522 -4.839897561575196 5.9705646532190775
52 -0.5954188895414635 6.857797004008213 0.04851970131913097
53 0.2327556814444201 5.75396874476469 -1.4724741442511264
54 1.802850760730941 -2.5021773508269933 -0.01030157408776315
55 -3.859029378986387 -2.4102964935188904 3.874675354761247
56 1.108223180933555 -0.5031346475074152 0.6930096235167886
57 2.580587235311022 0.36118580270584283 -1.475417650755925
58 2.4227979292991133 -0.3554957497779876 -2.7729954612935908
59 1.1112523225268314 2.9483550456435283 -0.27592923910732287
60 -3.4573760996476723 0.6756638593464702 -4.849552712513747
61 1.423552931012062 -3.972523436041901 -2.808598923409117
62 -0.72377400572666 -2.2287995640412777 -3.420550801787801
63 2.940903431507776 -4.228862802646337 -4.563066012392757
64 0.4144074563550427 -4.410312548837113 -4.324241986220841
