LAMMPS data file via write_data, version 29 Sep 2021, timestep = 10000

64 atoms
1 atom types

0 10.479999999999203 xlo xhi
0 9.075946231660229 ylo yhi
0 10.26 zlo zhi
0 0 0 xy xz yz

Masses

1 65.38

Atoms # atomic

1 1 1.30919222375122 5.1715037775835455 3.4945371071996885 0 0 0
2 1 1.625846907655642 5.387652780852822 8.26500237503134 0 0 0
3 1 10.260277924542871 7.4893489756391425 3.7400293903863644 -1 0 0
4 1 10.433029587740874 7.749683274213741 9.072440816261206 -1 0 0
5 1 6.464881052241178 0.9634901011159965 3.6140511528554016 0 0 0
6 1 6.322286022228282 0.6768902703904622 9.156804119997972 0 0 0
7 1 5.470735111086882 3.0811680597820605 3.9032649417031218 0 0 0
8 1 5.213807496058043 2.906667618155447 9.032540043100017 0 0 0
9 1 1.4953209078883196 0.7025651975829869 3.9717788024697 0 0 0
10 1 1.2041693079544582 0.8041793269868602 8.655224919980201 0 0 0
11 1 0.09181983420360464 2.9088189399729627 3.54079170247902 0 0 0
12 1 10.474443915500451 2.999041613840993 8.975898146128598 -1 0 0
13 1 4.018484808100562 0.8677498617695014 4.651652189005521 0 0 0
14 1 3.7822687436249223 0.5612921206197601 9.570755649242196 0 0 0
15 1 2.7649406848653486 2.9459733999500797 3.919282824899435 0 0 0
16 1 2.645854317743444 2.742014509942331 9.433961821353304 0 0 0
17 1 6.688481154653906 5.326781817839076 3.7124162490065236 0 0 0
18 1 6.373599689754706 5.1565111597856115 8.583065446909611 0 0 0
19 1 5.22325736435482 7.823048591627608 3.6110760895433494 0 0 0
20 1 5.126724371574474 7.448725210874649 9.258855600815068 0 0 0
21 1 9.219343561921942 5.333823227827975 3.5186843828575367 0 0 0
22 1 9.335112184000876 5.738045953313517 8.128476362014958 0 0 0
23 1 7.746852835575387 7.758351056417948 3.979990817524759 0 0 0
24 1 7.579540367560836 7.03916115500951 9.118250699437905 0 0 0
25 1 4.026176706014521 5.222858668402114 3.7122512061805235 0 0 0
26 1 4.02887020234182 5.073954621925692 9.288480891518804 0 0 0
27 1 2.656617706068117 7.364440169249825 3.7082957294076535 0 0 0
28 1 2.491871557839774 7.362396001658553 9.453856984246015 0 0 0
29 1 9.181232022953772 0.814128419917589 3.8382747093003284 0 0 0
30 1 9.060745677608766 0.6163186445288962 8.962995558595578 0 0 0
31 1 7.987340393919782 3.0145183840847083 3.9469958644152987 0 0 0
32 1 7.882641568867804 2.938662649344933 9.190621694071972 0 0 0
33 1 5.225051540183622 1.5445464895039311 1.4132025784347344 0 0 0
34 1 5.241513307156989 1.4586524939934125 6.850315809794085 0 0 0
35 1 3.987607196785513 3.8820182834078723 1.335081599560175 0 0 0
36 1 4.2128620359143625 3.717502700380156 6.821260563378578 0 0 0
37 1 2.6568699095783033 5.963717959105715 1.241831381685658 0 0 0
38 1 2.788279796610667 6.298529993703039 5.987429902746633 0 0 0
39 1 1.1982020812710867 8.383942025969255 1.5362124525949306 0 0 0
40 1 1.29632183399858 8.34186565935227 6.282064265510828 0 0 0
41 1 10.385252232227144 1.3066050841514194 0.6469521792352815 -1 0 0
42 1 10.468649866692083 1.6720207369775848 6.509013330988688 -1 0 0
43 1 2.3411316717837907 1.7410681663686531 1.676275767844905 0 0 0
44 1 2.5862007465704053 1.6335655319837055 6.458444112839745 0 0 0
45 1 1.3051503077100992 3.9991903041868677 1.1288213346070994 0 0 0
46 1 1.6035450972147889 3.951260122780551 6.208984442705438 0 0 0
47 1 10.302550424314115 5.998997599877772 0.6691995181086844 -1 0 0
48 1 0.24948893365869726 5.9531250831295575 5.745843278034936 0 0 0
49 1 8.992148679833557 3.8367407715871042 1.0913038665205166 0 0 0
50 1 9.194160765474946 3.9469345693261486 6.407615756425495 0 0 0
51 1 7.8046205526896415 6.0251183756324584 1.2551447247284724 0 0 0
52 1 7.870817387599729 6.312057384959624 6.346519921206299 0 0 0
53 1 6.614993367924814 8.318600892662268 1.187575346473168 0 0 0
54 1 6.48079310607434 8.149549549990455 6.973790348657402 0 0 0
55 1 9.071351813114962 7.960486546407554 1.4415504402705959 0 0 0
56 1 9.137465760831688 8.357281877707116 6.343268237936802 0 0 0
57 1 7.909180832382242 1.3368063790372868 1.0255319469960147 0 0 0
58 1 7.8732781027250445 1.6187325284047835 6.877508542379277 0 0 0
59 1 6.416169121569061 3.7591484056583364 1.3583345143470176 0 0 0
60 1 6.575731734539679 3.7837116219219786 6.201395008844087 0 0 0
61 1 5.339872229233888 6.211382088867283 1.600906184538834 0 0 0
62 1 5.408852077963107 6.116261085504778 6.089912929067509 0 0 0
63 1 3.7544489221765787 8.491931335150221 1.5639334252731134 0 0 0
64 1 3.8416723539741326 8.369162205227397 7.034172000328029 0 0 0

Velocities

1 -2.8672134968961767 1.5727183647584275 3.085934435745645
2 -2.5341343848142968 -1.6079949637437079 -2.796903584692865
3 -1.9631153602684985 5.047067124172398 0.8824701769306439
4 2.9627990861944182 -3.9413476714686926 -0.2991178191812184
5 3.7644558308352503 -2.0717044151111863 -0.6222475421306412
6 1.433840357775575 -0.9017266358855306 -1.2830060959986036
7 0.007726898522276265 -3.6194699716363212 -4.911121001345325
8 3.0038038708572414 1.95230651101767 -0.09002731704487284
9 -3.4622775373033376 -0.5432062329144335 6.99514947203885
10 -4.77982186776972 1.4888289985555674 -4.845726454959823
11 1.9448272182200537 4.666101360949708 -2.896076576855035
12 -2.156715117276629 -2.7208018462375962 -1.4242658665557248
13 1.2804477857972654 -0.6465168467570545 -1.6633159921914247
14 3.311003451836392 4.7528924464244415 -2.077890186181294
15 -4.592932741241265 -2.164276991878246 4.017700334286027
16 -2.981026266646458 4.038476729441748 0.8468863806245245
17 -5.815410331876621 -3.973823230852552 -1.1235423639073836
18 -1.7394490018115174 2.632471807330125 1.0920852245354837
19 3.3918690018780286 -1.2573607367484587 -0.9429540761448723
20 3.536587392285377 1.0943918361918206 0.6589287506073485
21 3.8502132390813726 -1.6405091584307576 1.232167053624004
22 -0.34033837418705654 2.7743103175746846 -0.4733800913190887
23 1.6035126930396528 -1.4582318716536264 -1.0951998707422446
24 5.578770721979066 -0.2898926175675617 -2.848617693165127
25 -2.6797265589337727 4.340087334854904 -1.97934805150624
26 -4.717784074694885 0.7640860081458707 -1.0966108502956176
27 -6.211886484500694 2.1953731921047797 -0.9702639223565022
28 2.000692978134699 -0.26557927335705983 -4.292720320166648
29 -4.305234411341323 1.7156554653966498 -6.627486477961997
30 1.8087884122796378 -2.875537181979933 2.280521758052206
31 6.1296347175421175 6.263124549408266 1.7047452951129705
32 -0.833146083085058 4.964853711709966 -0.607004549446376
33 1.9472148521215158 0.6970236362148322 2.8973409566281156
34 2.532334277346157 1.9194794773356296 0.6979719130249674
35 1.5562156112241337 1.3362020228674933 1.895189262200908
36 -5.3604247193841275 0.7317992634109112 2.141293354103737
37 -3.56746504318056 0.8559209034535102 2.7653173942805944
38 1.7362991963560164 -0.3879526189953052 1.2475787428849738
39 -2.6474972025525885 -0.32772817731692505 1.021479377553314
40 2.405995622638924 -3.1290798976289236 -1.7669804049856255
41 3.8914505670059722 1.5967286005506904 0.9948639926831527
42 3.380962394886126 -3.5095610655533216 1.9080974267593094
43 -0.5728900132498315 -3.3603725712337686 1.6865489014533304
44 -3.1605858981194364 0.5704248763174998 2.169990642526561
45 2.190389949830506 0.06912418020075053 -0.33994528891695586
46 -4.083185979301129 -2.6224345041034844 2.139378070747848
47 1.040489121029584 -0.1426608877104105 -2.4868262454494254
48 -6.325829667872458 -0.4315530898739589 0.14264493024385422
49 -2.680562596085711 0.7364676971950427 3.102069359766266
50 3.4488818069420013 -0.5008822594228036 0.8503579407119077
51 1.365419322837773 -2.128819498653149 2.8256041038730477
52 -2.8290103320495548 2.319397140622143 1.179291610138424
53 1.0171050673033881 -0.7515986857814152 -3.7691072677120863
54 -2.493749443206626 -2.162239861925871 1.297578188719716
55 0.9952642856907562 -5.414711808230983 2.2908669420659424
56 1.6753120783875377 -1.6174466446366649 -2.0290037703176864
57 4.4444688847619815 1.9662116578431834 -1.6142987948906469
58 2.029424212119061 -1.2184937568460679 0.7847386751667664
59 4.15602550239277 -6.485304747369416 0.9232152537259776
60 2.1685809807303253 4.979184450323799 -1.2745853196060062
61 1.400505447960055 -4.8016714394427265 -1.2682895537752632
62 2.5890067052378853 -0.8563796587084631 -0.08140291097843752
63 -2.0988759238936145 -0.9509783579737652 1.9971055810549307
64 -3.7800306315180223 2.7371395132572656 -0.157845241090451
