ITEM: TIMESTEP
10000
ITEM: NUMBER OF ATOMS
64
ITEM: BOX BOUNDS xy xz yz pp pp pp
0.0000000000000000e+00 1.0479999999999203e+01 0.0000000000000000e+00
0.0000000000000000e+00 9.0759462316602288e+00 0.0000000000000000e+00
0.0000000000000000e+00 1.0260000000000000e+01 0.0000000000000000e+00
ITEM: ATOMS id type x y z
1 1 1.30919 5.1715 3.49454
2 1 1.62585 5.38765 8.265
3 1 10.2603 7.48935 3.74003
4 1 10.433 7.74968 9.07244
5 1 6.46488 0.96349 3.61405
6 1 6.32229 0.67689 9.1568
7 1 5.47074 3.08117 3.90326
8 1 5.21381 2.90667 9.03254
9 1 1.49532 0.702565 3.97178
10 1 1.20417 0.804179 8.65522
11 1 0.0918198 2.90882 3.54079
12 1 -0.00555608 2.99904 8.9759
13 1 4.01848 0.86775 4.65165
14 1 3.78227 0.561292 9.57076
15 1 2.76494 2.94597 3.91928
16 1 2.64585 2.74201 9.43396
17 1 6.68848 5.32678 3.71242
18 1 6.3736 5.15651 8.58307
19 1 5.22326 7.82305 3.61108
20 1 5.12672 7.44873 9.25886
21 1 9.21934 5.33382 3.51868
22 1 9.33511 5.73805 8.12848
23 1 7.74685 7.75835 3.97999
24 1 7.57954 7.03916 9.11825
25 1 4.02618 5.22286 3.71225
26 1 4.02887 5.07395 9.28848
27 1 2.65662 7.36444 3.7083
28 1 2.49187 7.3624 9.45386
29 1 9.18123 0.814128 3.83827
30 1 9.06075 0.616319 8.963
31 1 7.98734 3.01452 3.947
32 1 7.88264 2.93866 9.19062
33 1 5.22505 1.54455 1.4132
34 1 5.24151 1.45865 6.85032
35 1 3.98761 3.88202 1.33508
36 1 4.21286 3.7175 6.82126
37 1 2.65687 5.96372 1.24183
38 1 2.78828 6.29853 5.98743
39 1 1.1982 8.38394 1.53621
40 1 1.29632 8.34187 6.28206
41 1 10.3853 1.30661 0.646952
42 1 10.4686 1.67202 6.50901
43 1 2.34113 1.74107 1.67628
44 1 2.5862 1.63357 6.45844
45 1 1.30515 3.99919 1.12882
46 1 1.60355 3.95126 6.20898
47 1 10.3026 5.999 0.6692
48 1 0.249489 5.95313 5.74584
49 1 8.99215 3.83674 1.0913
50 1 9.19416 3.94693 6.40762
51 1 7.80462 6.02512 1.25514
52 1 7.87082 6.31206 6.34652
53 1 6.61499 8.3186 1.18758
54 1 6.48079 8.14955 6.97379
55 1 9.07135 7.96049 1.44155
56 1 9.13747 8.35728 6.34327
57 1 7.90918 1.33681 1.02553
58 1 7.87328 1.61873 6.87751
59 1 6.41617 3.75915 1.35833
60 1 6.57573 3.78371 6.2014
61 1 5.33987 6.21138 1.60091
62 1 5.40885 6.11626 6.08991
63 1 3.75445 8.49193 1.56393
64 1 3.84167 8.36916 7.03417
