 # Something
 64 atoms
 1 atom types
 0   10.479999999999203      xlo xhi 
 0   9.0759462316602288      ylo yhi 
 0   10.260000000000000      zlo zhi 
   0.0000000000000000        0.0000000000000000        0.0000000000000000      xy xz yz
 Atoms
 
           1           1   1.3099999999999004        5.2943019684684671        3.8475000000000001     
           2           1   1.3099999999999004        5.2943019684684671        8.9774999999999991     
           3           1   0.0000000000000000        7.5632885263835243        3.8475000000000001     
           4           1   0.0000000000000000        7.5632885263835243        8.9774999999999991     
           5           1   6.5499999999995016       0.75632885263835237        3.8475000000000001     
           6           1   6.5499999999995016       0.75632885263835237        8.9774999999999991     
           7           1   5.2399999999996014        3.0253154105534095        3.8475000000000001     
           8           1   5.2399999999996014        3.0253154105534095        8.9774999999999991     
           9           1   1.3099999999999004       0.75632885263835237        3.8475000000000001     
          10           1   1.3099999999999004       0.75632885263835237        8.9774999999999991     
          11           1   0.0000000000000000        3.0253154105534095        3.8475000000000001     
          12           1   0.0000000000000000        3.0253154105534095        8.9774999999999991     
          13           1   3.9299999999997013       0.75632885263835237        3.8475000000000001     
          14           1   3.9299999999997013       0.75632885263835237        8.9774999999999991     
          15           1   2.6199999999998007        3.0253154105534095        3.8475000000000001     
          16           1   2.6199999999998007        3.0253154105534095        8.9774999999999991     
          17           1   6.5499999999995016        5.2943019684684671        3.8475000000000001     
          18           1   6.5499999999995016        5.2943019684684671        8.9774999999999991     
          19           1   5.2399999999996014        7.5632885263835243        3.8475000000000001     
          20           1   5.2399999999996014        7.5632885263835243        8.9774999999999991     
          21           1   9.1699999999993018        5.2943019684684671        3.8475000000000001     
          22           1   9.1699999999993018        5.2943019684684671        8.9774999999999991     
          23           1   7.8599999999994026        7.5632885263835243        3.8475000000000001     
          24           1   7.8599999999994026        7.5632885263835243        8.9774999999999991     
          25           1   3.9299999999997013        5.2943019684684671        3.8475000000000001     
          26           1   3.9299999999997013        5.2943019684684671        8.9774999999999991     
          27           1   2.6199999999998007        7.5632885263835243        3.8475000000000001     
          28           1   2.6199999999998007        7.5632885263835243        8.9774999999999991     
          29           1   9.1699999999993018       0.75632885263835237        3.8475000000000001     
          30           1   9.1699999999993018       0.75632885263835237        8.9774999999999991     
          31           1   7.8599999999994026        3.0253154105534095        3.8475000000000001     
          32           1   7.8599999999994026        3.0253154105534095        8.9774999999999991     
          33           1   5.2399999999996014        1.5126577052767052        1.2825000000000000     
          34           1   5.2399999999996014        1.5126577052767052        6.4124999999999996     
          35           1   3.9299999999997013        3.7816442631917622        1.2825000000000000     
          36           1   3.9299999999997013        3.7816442631917622        6.4124999999999996     
          37           1   2.6199999999998007        6.0506308211068198        1.2825000000000000     
          38           1   2.6199999999998007        6.0506308211068198        6.4124999999999996     
          39           1   1.3099999999999004        8.3196173790218779        1.2825000000000000     
          40           1   1.3099999999999004        8.3196173790218779        6.4124999999999996     
          41           1   0.0000000000000000        1.5126577052767052        1.2825000000000000     
          42           1   0.0000000000000000        1.5126577052767052        6.4124999999999996     
          43           1   2.6199999999998007        1.5126577052767052        1.2825000000000000     
          44           1   2.6199999999998007        1.5126577052767052        6.4124999999999996     
          45           1   1.3099999999999004        3.7816442631917622        1.2825000000000000     
          46           1   1.3099999999999004        3.7816442631917622        6.4124999999999996     
          47           1   0.0000000000000000        6.0506308211068198        1.2825000000000000     
          48           1   0.0000000000000000        6.0506308211068198        6.4124999999999996     
          49           1   9.1699999999993018        3.7816442631917622        1.2825000000000000     
          50           1   9.1699999999993018        3.7816442631917622        6.4124999999999996     
          51           1   7.8599999999994026        6.0506308211068198        1.2825000000000000     
          52           1   7.8599999999994026        6.0506308211068198        6.4124999999999996     
          53           1   6.5499999999995016        8.3196173790218779        1.2825000000000000     
          54           1   6.5499999999995016        8.3196173790218779        6.4124999999999996     
          55           1   9.1699999999993018        8.3196173790218779        1.2825000000000000     
          56           1   9.1699999999993018        8.3196173790218779        6.4124999999999996     
          57           1   7.8599999999994026        1.5126577052767052        1.2825000000000000     
          58           1   7.8599999999994026        1.5126577052767052        6.4124999999999996     
          59           1   6.5499999999995016        3.7816442631917622        1.2825000000000000     
          60           1   6.5499999999995016        3.7816442631917622        6.4124999999999996     
          61           1   5.2399999999996014        6.0506308211068198        1.2825000000000000     
          62           1   5.2399999999996014        6.0506308211068198        6.4124999999999996     
          63           1   3.9299999999997013        8.3196173790218779        1.2825000000000000     
          64           1   3.9299999999997013        8.3196173790218779        6.4124999999999996     
