LAMMPS (29 Sep 2021 - Update 1)
Reading data file ...
  triclinic box = (0.0000000 0.0000000 0.0000000) to (10.520000 9.1105872 10.060000) with tilt (0.0000000 0.0000000 0.0000000)
  1 by 1 by 1 MPI processor grid
  reading atoms ...
  64 atoms
  read_data CPU = 0.001 seconds
Neighbor list info ...
  update every 1 steps, delay 0 steps, check yes
  max neighbors/atom: 2000, page size: 100000
  master list distance cutoff = 7
  ghost atom cutoff = 7
  binsize = 3.5, bins = 4 3 3
  1 neighbor lists, perpetual/occasional/extra = 1 0 0
  (1) pair mlip, perpetual
      attributes: full, newton on
      pair build: full/bin/atomonly
      stencil: full/bin/3d
      bin: standard
Setting up Verlet run ...
  Unit style    : metal
  Current step  : 0
  Time step     : 0.001
Per MPI rank memory allocation (min/avg/max) = 3.089 | 3.089 | 3.089 Mbytes
Step Time Temp Volume Press 
       0            0         1380    964.18438    15925.287 
       1        0.001    1378.9529    964.18438    15960.738 
       2        0.002    1375.8168    964.18438     16066.11 
       3        0.003    1370.6078    964.18438    16233.053 
       4        0.004    1363.3523    964.18438    16458.468 
       5        0.005    1354.0845    964.18438    16744.886 
       6        0.006    1342.8455    964.18438    17093.362 
       7        0.007    1329.6837    964.18438    17504.682 
       8        0.008    1314.6555    964.18438    17979.378 
       9        0.009    1297.8245    964.18438    18516.008 
      10         0.01    1279.2624    964.18438    19112.357 
Loop time of 0.195938 on 1 procs for 10 steps with 64 atoms

Performance: 4.410 ns/day, 5.443 hours/ns, 51.036 timesteps/s
97.8% CPU use with 1 MPI tasks x no OpenMP threads

MPI task timing breakdown:
Section |  min time  |  avg time  |  max time  |%varavg| %total
---------------------------------------------------------------
Pair    | 0.19584    | 0.19584    | 0.19584    |   0.0 | 99.95
Neigh   | 0          | 0          | 0          |   0.0 |  0.00
Comm    | 3.0257e-05 | 3.0257e-05 | 3.0257e-05 |   0.0 |  0.02
Output  | 3.4545e-05 | 3.4545e-05 | 3.4545e-05 |   0.0 |  0.02
Modify  | 2.3285e-05 | 2.3285e-05 | 2.3285e-05 |   0.0 |  0.01
Other   |            | 1.107e-05  |            |       |  0.01

Nlocal:        64.0000 ave          64 max          64 min
Histogram: 1 0 0 0 0 0 0 0 0 0
Nghost:        886.000 ave         886 max         886 min
Histogram: 1 0 0 0 0 0 0 0 0 0
Neighs:         0.00000 ave           0 max           0 min
Histogram: 1 0 0 0 0 0 0 0 0 0
FullNghs:      6272.00 ave        6272 max        6272 min
Histogram: 1 0 0 0 0 0 0 0 0 0

Total # of neighbors = 6272
Ave neighs/atom = 98.000000
Neighbor list builds = 0
Dangerous builds = 0
Setting up Verlet run ...
  Unit style    : metal
  Current step  : 10
  Time step     : 0.001
Per MPI rank memory allocation (min/avg/max) = 3.089 | 3.089 | 3.089 Mbytes
Step Time Temp Volume Press 
      10         0.01    1279.2624    964.18438    19112.357 
      11        0.011    1259.0485    964.18438    19765.841 
      12        0.012    1237.2696    964.18438    20474.113 
      13        0.013    1214.0199    964.18438    21234.398 
      14        0.014    1189.4008    964.18438    22043.165 
      15        0.015    1163.5203    964.18438    22897.124 
      16        0.016    1136.4933    964.18438    23792.792 
      17        0.017    1108.4404    964.18438    24726.407 
      18        0.018    1079.4881    964.18438    25694.042 
      19        0.019    1049.7676    964.18438    26691.522 
      20         0.02    1019.4147    964.18438    27714.359 
      21        0.021    988.56876    964.18438     28758.25 
      22        0.022    957.37177    964.18438    29818.547 
      23        0.023    925.96774    964.18438    30890.529 
      24        0.024    894.50142    964.18438    31968.806 
      25        0.025    863.11712    964.18438     33048.01 
      26        0.026    831.95776    964.18438    34123.255 
      27        0.027    801.16421    964.18438      35190.8 
      28        0.028     770.8741    964.18438    36245.604 
      29        0.029    741.22046    964.18438    37283.232 
      30         0.03    712.33044    964.18438    38296.822 
      31        0.031    684.32464    964.18438    39285.323 
      32        0.032    657.31638    964.18438    40243.706 
      33        0.033    631.40997    964.18438    41166.965 
      34        0.034    606.70054    964.18438    42053.916 
      35        0.035    583.27367    964.18438    42902.839 
      36        0.036    561.20431    964.18438    43710.392 
      37        0.037    540.55582    964.18438    44471.994 
      38        0.038    521.37986    964.18438     45186.49 
      39        0.039    503.71683    964.18438    45853.985 
      40         0.04    487.59544    964.18438    46471.867 
      41        0.041    473.03257    964.18438    47039.489 
      42        0.042    460.03374    964.18438    47556.352 
      43        0.043    448.59327    964.18438    48021.195 
      44        0.044    438.69492    964.18438    48434.793 
      45        0.045    430.31246    964.18438    48796.994 
      46        0.046    423.41027    964.18438    49107.975 
      47        0.047    417.94406    964.18438    49368.724 
      48        0.048    413.86176    964.18438    49580.757 
      49        0.049     411.1044    964.18438    49745.896 
      50         0.05    409.60702    964.18438    49866.514 
      51        0.051    409.29938    964.18438    49943.561 
      52        0.052     410.1068    964.18438    49979.328 
      53        0.053    411.95105    964.18438    49975.532 
      54        0.054    414.75096    964.18438    49932.013 
      55        0.055    418.42331    964.18438    49852.912 
      56        0.056    422.88397    964.18438    49741.968 
      57        0.057     428.0486    964.18438    49603.126 
      58        0.058    433.83318    964.18438    49438.343 
      59        0.059    440.15446    964.18438    49251.207 
      60         0.06    446.93054    964.18438    49044.732 
      61        0.061    454.08111    964.18438    48822.143 
      62        0.062    461.52801    964.18438    48584.596 
      63        0.063    469.19575    964.18438    48335.009 
      64        0.064     477.0119    964.18438    48077.398 
      65        0.065    484.90733    964.18438    47814.003 
      66        0.066    492.81624    964.18438    47546.428 
      67        0.067    500.67646    964.18438     47277.86 
      68        0.068    508.42956    964.18438    47010.767 
      69        0.069    516.02103    964.18438    46747.163 
      70         0.07    523.40042    964.18438    46487.814 
      71        0.071    530.52124    964.18438    46235.825 
      72        0.072    537.34124    964.18438    45993.059 
      73        0.073    543.82238    964.18438    45760.975 
      74        0.074    549.93077    964.18438    45540.937 
      75        0.075    555.63662    964.18438    45333.827 
      76        0.076    560.91389    964.18438    45138.642 
      77        0.077    565.74057    964.18438    44958.929 
      78        0.078    570.09892    964.18438    44794.721 
      79        0.079    573.97517    964.18438    44647.771 
      80         0.08    577.35949    964.18438    44517.657 
      81        0.081    580.24587    964.18438    44404.469 
      82        0.082    582.63191    964.18438    44309.078 
      83        0.083    584.51875    964.18438    44231.797 
      84        0.084    585.91108    964.18438    44172.268 
      85        0.085    586.81688    964.18438    44128.507 
      86        0.086    587.24739    964.18438    44101.558 
      87        0.087    587.21694    964.18438    44090.057 
      88        0.088    586.74259    964.18438    44092.333 
      89        0.089    585.84416    964.18438    44108.191 
      90         0.09    584.54426    964.18438    44137.663 
      91        0.091    582.86806    964.18438    44180.017 
      92        0.092     580.8432    964.18438    44235.118 
      93        0.093    578.49968    964.18438    44302.842 
      94        0.094    575.86938    964.18438    44381.378 
      95        0.095    572.98592    964.18438    44469.814 
      96        0.096    569.88458    964.18438    44566.898 
      97        0.097    566.60211    964.18438    44671.048 
      98        0.098    563.17633    964.18438    44781.043 
      99        0.099    559.64598    964.18438    44895.862 
     100          0.1     556.0504    964.18438    45015.071 
Loop time of 1.77583 on 1 procs for 90 steps with 64 atoms

Performance: 4.379 ns/day, 5.481 hours/ns, 50.681 timesteps/s
100.0% CPU use with 1 MPI tasks x no OpenMP threads

MPI task timing breakdown:
Section |  min time  |  avg time  |  max time  |%varavg| %total
---------------------------------------------------------------
Pair    | 1.7748     | 1.7748     | 1.7748     |   0.0 | 99.94
Neigh   | 0.00020372 | 0.00020372 | 0.00020372 |   0.0 |  0.01
Comm    | 0.00027267 | 0.00027267 | 0.00027267 |   0.0 |  0.02
Output  | 0.00029966 | 0.00029966 | 0.00029966 |   0.0 |  0.02
Modify  | 0.0001488  | 0.0001488  | 0.0001488  |   0.0 |  0.01
Other   |            | 6.783e-05  |            |       |  0.00

Nlocal:        64.0000 ave          64 max          64 min
Histogram: 1 0 0 0 0 0 0 0 0 0
Nghost:        886.000 ave         886 max         886 min
Histogram: 1 0 0 0 0 0 0 0 0 0
Neighs:         0.00000 ave           0 max           0 min
Histogram: 1 0 0 0 0 0 0 0 0 0
FullNghs:      6106.00 ave        6106 max        6106 min
Histogram: 1 0 0 0 0 0 0 0 0 0

Total # of neighbors = 6106
Ave neighs/atom = 95.406250
Neighbor list builds = 1
Dangerous builds = 0
Setting up Verlet run ...
  Unit style    : metal
  Current step  : 100
  Time step     : 0.001
Per MPI rank memory allocation (min/avg/max) = 3.089 | 3.089 | 3.089 Mbytes
Step Time Temp Volume Press 
     100          0.1     556.0504    964.18438    45015.071 
     110         0.11    525.07443    964.18438     46048.11 
     120         0.12    525.22238    964.18438    46038.138 
     130         0.13    567.29045    964.18438    44559.056 
     140         0.14    632.38233    964.18438     42245.43 
     150         0.15    688.07258    964.18438    40236.855 
     160         0.16    711.78921    964.18438    39399.415 
     170         0.17    700.74085    964.18438    39894.467 
     180         0.18    669.49218    964.18438    41200.933 
     190         0.19    640.57952    964.18438    42424.679 
     200          0.2    629.77566    964.18438    43048.071 
     210         0.21    638.86768    964.18438    43046.936 
     220         0.22    660.84602    964.18438    42669.594 
     230         0.23     682.2653    964.18438    42464.778 
     240         0.24    687.05135    964.18438    42844.755 
     250         0.25    673.27673    964.18438    43709.894 
     260         0.26    657.74405    964.18438     44538.46 
     270         0.27    658.60483    964.18438     44765.09 
     280         0.28    683.82303    964.18438    44156.829 
     290         0.29    728.14983    964.18438    42938.379 
     300          0.3    768.63383    964.18438    41901.764 
     310         0.31    781.94054    964.18438    41719.833 
     320         0.32    769.90672    964.18438    42269.227 
     330         0.33    752.59531    964.18438    43064.857 
     340         0.34    744.74492    964.18438    43639.126 
     350         0.35    743.27098    964.18438    44026.644 
     360         0.36    731.32981    964.18438    44707.983 
     370         0.37    698.30446    964.18438    45927.538 
     380         0.38     658.0401    964.18438    47173.621 
     390         0.39    641.82998    964.18438    47702.184 
     400          0.4    662.42908    964.18438    47236.373 
     410         0.41    696.44839    964.18438     46294.06 
     420         0.42    714.51204    964.18438     45612.52 
     430         0.43    713.36098    964.18438    45329.587 
     440         0.44    709.07727    964.18438     45123.62 
     450         0.45    712.75441    964.18438    44613.724 
     460         0.46    726.00665    964.18438    43810.827 
     470         0.47    744.73031    964.18438     42841.17 
     480         0.48    756.95237    964.18438     41962.36 
     490         0.49    747.78641    964.18438    41594.502 
     500          0.5    711.98782    964.18438    41899.379 
     510         0.51    664.09652    964.18438    42444.277 
     520         0.52    631.15801    964.18438     42487.65 
     530         0.53    624.45027    964.18438    41745.452 
     540         0.54    627.10723    964.18438    40693.966 
     550         0.55    619.63899    964.18438    39896.861 
     560         0.56    604.72838    964.18438    39341.365 
     570         0.57    598.79761    964.18438    38608.024 
     580         0.58    607.83396    964.18438    37554.117 
     590         0.59    619.72589    964.18438    36560.088 
     600          0.6    620.75394    964.18438    36031.648 
     610         0.61    609.11418    964.18438    36076.583 
     620         0.62    588.53263    964.18438    36655.732 
     630         0.63    560.24206    964.18438     37668.58 
     640         0.64    528.46615    964.18438    38812.376 
     650         0.65    508.34184    964.18438     39573.48 
     660         0.66    514.44782    964.18438    39449.449 
     670         0.67    547.10364    964.18438    38357.511 
     680         0.68     598.7694    964.18438     36658.32 
     690         0.69    656.79439    964.18438    34939.895 
     700          0.7    701.39038    964.18438     33895.52 
     710         0.71    714.48103    964.18438    34103.056 
     720         0.72    693.73649    964.18438    35536.234 
     730         0.73    656.75439    964.18438    37471.236 
     740         0.74    629.07665    964.18438    39083.644 
     750         0.75    625.47759    964.18438    39878.625 
     760         0.76     641.6056    964.18438    40004.945 
     770         0.77    661.04112    964.18438    40038.033 
     780         0.78    666.38119    964.18438    40601.402 
     790         0.79    649.56381    964.18438    41848.495 
     800          0.8    618.55363    964.18438    43448.807 
     810         0.81    595.00183    964.18438    44768.284 
     820         0.82    596.84417    964.18438    45221.518 
     830         0.83    619.67147    964.18438    44933.851 
     840         0.84    647.30597    964.18438    44290.806 
     850         0.85    672.45771    964.18438    43565.572 
     860         0.86    697.17269    964.18438    42820.023 
     870         0.87    723.62233    964.18438    41982.921 
     880         0.88    747.09266    964.18438     41175.14 
     890         0.89    758.97462    964.18438    40680.897 
     900          0.9    758.49899    964.18438    40674.757 
     910         0.91    747.27269    964.18438    41270.381 
     920         0.92    715.69198    964.18438    42773.363 
     930         0.93    659.89282    964.18438    44955.119 
     940         0.94     605.0841    964.18438    46901.787 
     950         0.95    588.52799    964.18438    47495.091 
     960         0.96    624.80417    964.18438    46205.973 
     970         0.97    698.54926    964.18438    43598.438 
     980         0.98     776.6334    964.18438    40858.623 
     990         0.99    824.65743    964.18438    39152.184 
    1000            1    826.85463    964.18438    39035.769 
Loop time of 18.4855 on 1 procs for 900 steps with 64 atoms

Performance: 4.207 ns/day, 5.705 hours/ns, 48.687 timesteps/s
100.0% CPU use with 1 MPI tasks x no OpenMP threads

MPI task timing breakdown:
Section |  min time  |  avg time  |  max time  |%varavg| %total
---------------------------------------------------------------
Pair    | 18.477     | 18.477     | 18.477     |   0.0 | 99.95
Neigh   | 0.0029578  | 0.0029578  | 0.0029578  |   0.0 |  0.02
Comm    | 0.0028343  | 0.0028343  | 0.0028343  |   0.0 |  0.02
Output  | 0.00036887 | 0.00036887 | 0.00036887 |   0.0 |  0.00
Modify  | 0.0015408  | 0.0015408  | 0.0015408  |   0.0 |  0.01
Other   |            | 0.0006486  |            |       |  0.00

Nlocal:        64.0000 ave          64 max          64 min
Histogram: 1 0 0 0 0 0 0 0 0 0
Nghost:        886.000 ave         886 max         886 min
Histogram: 1 0 0 0 0 0 0 0 0 0
Neighs:         0.00000 ave           0 max           0 min
Histogram: 1 0 0 0 0 0 0 0 0 0
FullNghs:      6080.00 ave        6080 max        6080 min
Histogram: 1 0 0 0 0 0 0 0 0 0

Total # of neighbors = 6080
Ave neighs/atom = 95.000000
Neighbor list builds = 15
Dangerous builds = 0
Setting up Verlet run ...
  Unit style    : metal
  Current step  : 1000
  Time step     : 0.001
Per MPI rank memory allocation (min/avg/max) = 3.089 | 3.089 | 3.089 Mbytes
Step Time Temp Volume Press 
    1000            1    826.85463    964.18438    39035.769 
    1100          1.1    592.02232    964.18438    47098.159 
    1200          1.2    886.37901    964.18438    40364.347 
    1300          1.3    741.10914    964.18438    51249.105 
    1400          1.4    788.55604    964.18438    50940.128 
    1500          1.5    678.60631    964.18438    46877.633 
    1600          1.6    590.65018    964.18438    44831.428 
    1700          1.7    689.54718    964.18438    40430.731 
    1800          1.8     604.8949    964.18438    41135.857 
    1900          1.9    637.52312    964.18438    43432.029 
    2000            2    777.57256    964.18438    47827.472 
    2100          2.1    722.33228    964.18438    48366.841 
    2200          2.2     629.2177    964.18438    47664.431 
    2300          2.3    709.19384    964.18438    41324.464 
    2400          2.4    620.78498    964.18438    35981.201 
    2500          2.5    592.00191    964.18438    35845.917 
    2600          2.6    577.46281    964.18438    40494.835 
    2700          2.7     611.3804    964.18438    42561.711 
    2800          2.8    707.91817    964.18438    44892.951 
    2900          2.9    765.32704    964.18438     44075.24 
    3000            3    670.26267    964.18438    45621.069 
    3100          3.1    692.54408    964.18438    44630.158 
    3200          3.2     741.7039    964.18438    39753.246 
    3300          3.3    619.92659    964.18438    39501.855 
    3400          3.4    670.20719    964.18438    37749.769 
    3500          3.5    751.93825    964.18438    44550.281 
    3600          3.6    689.57217    964.18438    48580.736 
    3700          3.7    682.01208    964.18438     47637.39 
    3800          3.8    672.06672    964.18438     42255.27 
    3900          3.9    539.46827    964.18438    44504.265 
    4000            4    676.68829    964.18438    41792.826 
    4100          4.1    644.81737    964.18438     44226.17 
    4200          4.2    748.84638    964.18438    41456.091 
    4300          4.3    694.09479    964.18438    47063.994 
    4400          4.4    848.77053    964.18438     48997.75 
    4500          4.5    731.79721    964.18438    48888.481 
    4600          4.6    624.90755    964.18438      43904.1 
    4700          4.7    636.08094    964.18438    44064.492 
    4800          4.8    764.77916    964.18438    42222.246 
    4900          4.9    771.14905    964.18438    45625.011 
    5000            5    659.34542    964.18438    49379.981 
    5100          5.1    555.97666    964.18438    46666.537 
    5200          5.2    701.19351    964.18438    40953.112 
    5300          5.3    705.79173    964.18438    40521.151 
    5400          5.4    669.59614    964.18438    43042.183 
    5500          5.5    685.32236    964.18438    48553.507 
    5600          5.6    734.15033    964.18438    49557.476 
    5700          5.7    724.38325    964.18438    44308.109 
    5800          5.8    592.95326    964.18438    44458.602 
    5900          5.9     728.5472    964.18438    38698.761 
    6000            6    629.93999    964.18438    42612.231 
    6100          6.1    631.97247    964.18438    47582.546 
    6200          6.2    799.97526    964.18438    49768.212 
    6300          6.3    844.88047    964.18438    43291.406 
    6400          6.4    672.00433    964.18438    43529.799 
    6500          6.5    634.14661    964.18438    40991.347 
    6600          6.6    672.56302    964.18438    41468.085 
    6700          6.7    723.34332    964.18438    44821.938 
    6800          6.8    830.93467    964.18438     45993.06 
    6900          6.9    761.49947    964.18438    44999.046 
    7000            7    721.95343    964.18438    43512.263 
    7100          7.1    713.24817    964.18438    41184.646 
    7200          7.2    653.46915    964.18438    41779.278 
    7300          7.3    576.35465    964.18438    44605.253 
    7400          7.4     705.0866    964.18438     42152.48 
    7500          7.5    756.74184    964.18438    39910.999 
    7600          7.6    643.10974    964.18438    43758.762 
    7700          7.7    745.33071    964.18438    40393.322 
    7800          7.8    655.95987    964.18438    43109.358 
    7900          7.9    718.18427    964.18438    40324.888 
    8000            8    716.02267    964.18438    41717.452 
    8100          8.1    736.16257    964.18438    42670.435 
    8200          8.2    560.97941    964.18438    44124.065 
    8300          8.3    660.00546    964.18438     40170.41 
    8400          8.4    775.06215    964.18438    42608.233 
    8500          8.5    752.42755    964.18438     48546.48 
    8600          8.6     750.1546    964.18438    42953.407 
    8700          8.7     589.1842    964.18438    42636.051 
    8800          8.8     653.6282    964.18438     41644.96 
    8900          8.9    691.99761    964.18438    44427.284 
    9000            9    755.33175    964.18438    45592.498 
    9100          9.1    728.74218    964.18438     46061.33 
    9200          9.2    729.52837    964.18438     43310.16 
    9300          9.3    673.99727    964.18438    38730.675 
    9400          9.4    635.04272    964.18438    37804.066 
    9500          9.5    680.72827    964.18438    40229.562 
    9600          9.6    720.65755    964.18438     48341.42 
    9700          9.7    811.55844    964.18438    45558.872 
    9800          9.8    690.41393    964.18438    44973.009 
    9900          9.9     673.5682    964.18438    42613.608 
   10000           10    691.83305    964.18438    39596.739 
Loop time of 199.198 on 1 procs for 9000 steps with 64 atoms

Performance: 3.904 ns/day, 6.148 hours/ns, 45.181 timesteps/s
100.0% CPU use with 1 MPI tasks x no OpenMP threads

MPI task timing breakdown:
Section |  min time  |  avg time  |  max time  |%varavg| %total
---------------------------------------------------------------
Pair    | 199.11     | 199.11     | 199.11     |   0.0 | 99.96
Neigh   | 0.033734   | 0.033734   | 0.033734   |   0.0 |  0.02
Comm    | 0.031609   | 0.031609   | 0.031609   |   0.0 |  0.02
Output  | 0.00053926 | 0.00053926 | 0.00053926 |   0.0 |  0.00
Modify  | 0.016041   | 0.016041   | 0.016041   |   0.0 |  0.01
Other   |            | 0.006977   |            |       |  0.00

Nlocal:        64.0000 ave          64 max          64 min
Histogram: 1 0 0 0 0 0 0 0 0 0
Nghost:        886.000 ave         886 max         886 min
Histogram: 1 0 0 0 0 0 0 0 0 0
Neighs:         0.00000 ave           0 max           0 min
Histogram: 1 0 0 0 0 0 0 0 0 0
FullNghs:      6116.00 ave        6116 max        6116 min
Histogram: 1 0 0 0 0 0 0 0 0 0

Total # of neighbors = 6116
Ave neighs/atom = 95.562500
Neighbor list builds = 159
Dangerous builds = 0
System init for write_data ...
Total wall time: 0:03:39
