ITEM: TIMESTEP
10000
ITEM: NUMBER OF ATOMS
64
ITEM: BOX BOUNDS xy xz yz pp pp pp
0.0000000000000000e+00 1.0519999999999747e+01 0.0000000000000000e+00
0.0000000000000000e+00 9.1105872478120737e+00 0.0000000000000000e+00
0.0000000000000000e+00 1.0060000000000000e+01 0.0000000000000000e+00
ITEM: ATOMS id type x y z
1 1 1.05471 4.99012 3.99106
2 1 1.24765 5.40162 8.68875
3 1 10.3242 7.58275 4.05583
4 1 0.0595042 7.76111 8.55444
5 1 6.51763 0.800573 3.93136
6 1 6.77232 0.813131 9.00557
7 1 5.1974 3.04962 3.41065
8 1 5.46092 3.30507 8.78752
9 1 1.35974 0.730843 3.94436
10 1 1.56132 0.699336 8.61662
11 1 10.3311 2.97295 3.65916
12 1 0.0540885 3.09595 8.58574
13 1 3.95183 0.910926 3.95892
14 1 4.06564 0.636813 8.59908
15 1 2.50737 2.96245 3.43273
16 1 2.86616 3.0329 8.6424
17 1 6.46049 5.17012 3.81623
18 1 6.47604 5.53516 8.78421
19 1 5.14124 7.74403 3.79135
20 1 5.42321 7.64398 9.01404
21 1 8.98219 5.25347 3.75006
22 1 9.49513 5.48346 8.9547
23 1 7.56132 7.73352 3.90094
24 1 7.91764 7.75605 9.17171
25 1 3.8285 5.22239 3.46286
26 1 3.91143 5.33864 8.6497
27 1 2.56041 7.45249 3.7028
28 1 2.83141 7.59742 8.79584
29 1 9.23466 0.707337 4.00964
30 1 9.37745 0.89219 8.7714
31 1 7.84828 2.97863 3.63939
32 1 7.94221 3.20947 8.98561
33 1 5.14408 1.28902 1.40381
34 1 5.12799 1.55584 6.76247
35 1 3.95924 3.6902 1.11374
36 1 3.75365 3.79131 5.86914
37 1 2.62335 5.98837 1.1061
38 1 2.82196 6.26571 6.24784
39 1 1.58241 8.19781 1.3703
40 1 1.44044 8.37663 6.3261
41 1 0.259897 1.66715 0.94342
42 1 0.0973262 1.54114 6.35831
43 1 2.54434 1.25587 1.09083
44 1 2.56032 1.49854 6.14698
45 1 1.23595 3.95041 0.723502
46 1 1.24256 3.59657 6.02409
47 1 0.0501817 6.09195 1.54714
48 1 0.00118559 6.13747 6.27683
49 1 9.05448 4.07997 1.38794
50 1 9.13757 3.72061 6.09131
51 1 7.82514 6.25094 1.21963
52 1 7.87007 6.0835 6.71481
53 1 6.53419 8.34677 1.51668
54 1 6.49532 8.43155 6.65149
55 1 9.30182 8.19318 1.28054
56 1 9.09991 8.28504 6.42496
57 1 7.94933 1.65781 1.24959
58 1 7.89866 1.4361 6.68495
59 1 6.61246 3.7822 1.04336
60 1 6.60916 3.51392 5.95987
61 1 5.30214 6.0173 1.6363
62 1 5.26421 5.89315 6.19329
63 1 3.88177 8.14567 1.35548
64 1 3.99576 8.34259 6.13452
