LAMMPS (29 Sep 2021 - Update 1)
Reading data file ...
  triclinic box = (0.0000000 0.0000000 0.0000000) to (10.520000 9.1105872 9.9400000) with tilt (0.0000000 0.0000000 0.0000000)
  1 by 1 by 1 MPI processor grid
  reading atoms ...
  64 atoms
  read_data CPU = 0.001 seconds
Neighbor list info ...
  update every 1 steps, delay 0 steps, check yes
  max neighbors/atom: 2000, page size: 100000
  master list distance cutoff = 7
  ghost atom cutoff = 7
  binsize = 3.5, bins = 4 3 3
  1 neighbor lists, perpetual/occasional/extra = 1 0 0
  (1) pair mlip, perpetual
      attributes: full, newton on
      pair build: full/bin/atomonly
      stencil: full/bin/3d
      bin: standard
Setting up Verlet run ...
  Unit style    : metal
  Current step  : 0
  Time step     : 0.001
Per MPI rank memory allocation (min/avg/max) = 3.089 | 3.089 | 3.089 Mbytes
Step Time Temp Volume Press 
       0            0         1380    952.68318    22856.696 
       1        0.001    1378.9434    952.68318    22892.505 
       2        0.002    1375.7799    952.68318    22986.908 
       3        0.003    1370.5254    952.68318    23140.613 
       4        0.004    1363.2026    952.68318    23360.653 
       5        0.005    1353.8412    952.68318    23648.407 
       6        0.006    1342.4794    952.68318    24004.188 
       7        0.007    1329.1635    952.68318    24427.118 
       8        0.008    1313.9484    952.68318    24915.451 
       9        0.009    1296.8973    952.68318    25467.447 
      10         0.01    1278.0818    952.68318    26080.881 
Loop time of 0.213618 on 1 procs for 10 steps with 64 atoms

Performance: 4.045 ns/day, 5.934 hours/ns, 46.813 timesteps/s
99.7% CPU use with 1 MPI tasks x no OpenMP threads

MPI task timing breakdown:
Section |  min time  |  avg time  |  max time  |%varavg| %total
---------------------------------------------------------------
Pair    | 0.21351    | 0.21351    | 0.21351    |   0.0 | 99.95
Neigh   | 0          | 0          | 0          |   0.0 |  0.00
Comm    | 3.3062e-05 | 3.3062e-05 | 3.3062e-05 |   0.0 |  0.02
Output  | 3.7231e-05 | 3.7231e-05 | 3.7231e-05 |   0.0 |  0.02
Modify  | 2.342e-05  | 2.342e-05  | 2.342e-05  |   0.0 |  0.01
Other   |            | 1.055e-05  |            |       |  0.00

Nlocal:        64.0000 ave          64 max          64 min
Histogram: 1 0 0 0 0 0 0 0 0 0
Nghost:        886.000 ave         886 max         886 min
Histogram: 1 0 0 0 0 0 0 0 0 0
Neighs:         0.00000 ave           0 max           0 min
Histogram: 1 0 0 0 0 0 0 0 0 0
FullNghs:      6272.00 ave        6272 max        6272 min
Histogram: 1 0 0 0 0 0 0 0 0 0

Total # of neighbors = 6272
Ave neighs/atom = 98.000000
Neighbor list builds = 0
Dangerous builds = 0
Setting up Verlet run ...
  Unit style    : metal
  Current step  : 10
  Time step     : 0.001
Per MPI rank memory allocation (min/avg/max) = 3.089 | 3.089 | 3.089 Mbytes
Step Time Temp Volume Press 
      10         0.01    1278.0818    952.68318    26080.881 
      11        0.011    1257.5819    952.68318    26753.269 
      12        0.012    1235.4856    952.68318    27481.845 
      13        0.013    1211.8889    952.68318    28263.454 
      14        0.014    1186.8956    952.68318    29094.716 
      15        0.015     1160.617    952.68318    29972.012 
      16        0.016    1133.1714    952.68318    30891.427 
      17        0.017    1104.6838    952.68318    31848.877 
      18        0.018    1075.2854    952.68318    32840.049 
      19        0.019    1045.1129    952.68318    33860.487 
      20         0.02    1014.3079    952.68318    34905.533 
      21        0.021    983.01579    952.68318    35970.369 
      22        0.022    951.38549    952.68318    37050.085 
      23        0.023    919.56793    952.68318    38139.691 
      24        0.024    887.71527    952.68318    39234.167 
      25        0.025     855.9797    952.68318    40328.256 
      26        0.026    824.51228    952.68318    41416.841 
      27        0.027    793.46185    952.68318     42495.21 
      28        0.028    762.97381    952.68318    43558.609 
      29        0.029    733.18879    952.68318    44602.277 
      30         0.03    704.24134    952.68318    45621.174 
      31        0.031     676.2588    952.68318    46611.154 
      32        0.032    649.36035    952.68318     47568.98 
      33        0.033    623.65592    952.68318    48490.496 
      34        0.034    599.24496    952.68318    49372.095 
      35        0.035    576.21559    952.68318    50209.946 
      36        0.036    554.64393    952.68318    51001.118 
      37        0.037     534.5935    952.68318    51743.494 
      38        0.038    516.11478    952.68318    52434.637 
      39        0.039    499.24502    952.68318    53073.521 
      40         0.04    484.00815    952.68318    53658.511 
      41        0.041    470.41472    952.68318    54188.344 
      42        0.042    458.46224    952.68318    54663.746 
      43        0.043    448.13571    952.68318    55084.668 
      44        0.044    439.40791    952.68318    55452.194 
      45        0.045    432.24013    952.68318    55766.683 
      46        0.046    426.58298    952.68318    56029.131 
      47        0.047    422.37732    952.68318     56240.76 
      48        0.048    419.55525    952.68318    56403.325 
      49        0.049    418.04108    952.68318    56518.409 
      50         0.05    417.75248    952.68318    56589.018 
      51        0.051    418.60162    952.68318    56618.645 
      52        0.052    420.49616    952.68318    56609.606 
      53        0.053    423.34043    952.68318     56565.18 
      54        0.054    427.03638    952.68318    56487.961 
      55        0.055    431.48458    952.68318    56380.853 
      56        0.056    436.58528    952.68318    56248.051 
      57        0.057      442.239    952.68318    56091.626 
      58        0.058    448.34747    952.68318    55915.365 
      59        0.059     454.8143    952.68318    55722.331 
      60         0.06    461.54571    952.68318    55516.425 
      61        0.061    468.45105    952.68318    55299.652 
      62        0.062    475.44356    952.68318    55077.465 
      63        0.063    482.44102    952.68318    54853.194 
      64        0.064    489.36582    952.68318    54629.153 
      65        0.065    496.14517    952.68318    54406.609 
      66        0.066    502.71116    952.68318    54187.722 
      67        0.067    509.00135    952.68318    53976.343 
      68        0.068    514.95897    952.68318    53774.117 
      69        0.069    520.53273    952.68318    53581.744 
      70         0.07    525.67719    952.68318    53402.136 
      71        0.071    530.35287    952.68318    53235.537 
      72        0.072    534.52597    952.68318    53085.853 
      73        0.073    538.16841    952.68318    52953.394 
      74        0.074    541.25804    952.68318    52838.913 
      75        0.075    543.77844    952.68318     52743.09 
      76        0.076    545.71888    952.68318    52666.785 
      77        0.077    547.07424    952.68318    52610.514 
      78        0.078    547.84495    952.68318    52574.117 
      79        0.079    548.03687    952.68318    52557.446 
      80         0.08    547.66106    952.68318    52559.301 
      81        0.081    546.73376    952.68318    52579.357 
      82        0.082    545.27648    952.68318    52617.431 
      83        0.083    543.31577    952.68318    52672.693 
      84        0.084    540.88272    952.68318    52742.789 
      85        0.085    538.01301    952.68318    52825.775 
      86        0.086    534.74691    952.68318    52921.729 
      87        0.087    531.12856    952.68318    53030.296 
      88        0.088    527.20556    952.68318    53149.485 
      89        0.089    523.02894    952.68318    53275.964 
      90         0.09    518.65276    952.68318    53410.017 
      91        0.091    514.13334    952.68318     53549.98 
      92        0.092    509.52853    952.68318    53691.329 
      93        0.093    504.89748    952.68318    53832.968 
      94        0.094    500.30041    952.68318    53975.127 
      95        0.095    495.79785    952.68318    54115.137 
      96        0.096     491.4499    952.68318    54251.015 
      97        0.097    487.31589    952.68318    54380.072 
      98        0.098    483.45348    952.68318     54501.17 
      99        0.099    479.91799    952.68318    54612.972 
     100          0.1      476.762    952.68318    54713.808 
Loop time of 1.96289 on 1 procs for 90 steps with 64 atoms

Performance: 3.961 ns/day, 6.058 hours/ns, 45.851 timesteps/s
100.0% CPU use with 1 MPI tasks x no OpenMP threads

MPI task timing breakdown:
Section |  min time  |  avg time  |  max time  |%varavg| %total
---------------------------------------------------------------
Pair    | 1.9618     | 1.9618     | 1.9618     |   0.0 | 99.95
Neigh   | 0.00020549 | 0.00020549 | 0.00020549 |   0.0 |  0.01
Comm    | 0.00030581 | 0.00030581 | 0.00030581 |   0.0 |  0.02
Output  | 0.00031091 | 0.00031091 | 0.00031091 |   0.0 |  0.02
Modify  | 0.00016265 | 0.00016265 | 0.00016265 |   0.0 |  0.01
Other   |            | 7.501e-05  |            |       |  0.00

Nlocal:        64.0000 ave          64 max          64 min
Histogram: 1 0 0 0 0 0 0 0 0 0
Nghost:        886.000 ave         886 max         886 min
Histogram: 1 0 0 0 0 0 0 0 0 0
Neighs:         0.00000 ave           0 max           0 min
Histogram: 1 0 0 0 0 0 0 0 0 0
FullNghs:      6214.00 ave        6214 max        6214 min
Histogram: 1 0 0 0 0 0 0 0 0 0

Total # of neighbors = 6214
Ave neighs/atom = 97.093750
Neighbor list builds = 1
Dangerous builds = 0
Setting up Verlet run ...
  Unit style    : metal
  Current step  : 100
  Time step     : 0.001
Per MPI rank memory allocation (min/avg/max) = 3.089 | 3.089 | 3.089 Mbytes
Step Time Temp Volume Press 
     100          0.1      476.762    952.68318    54713.808 
     110         0.11    474.60826    952.68318     54851.08 
     120         0.12    531.79205    952.68318    53109.527 
     130         0.13    620.11005    952.68318    50324.683 
     140         0.14    696.56019    952.68318    47869.136 
     150         0.15    734.49922    952.68318    46674.613 
     160         0.16     731.4246    952.68318    46912.077 
     170         0.17    705.22297    952.68318    48027.052 
     180         0.18     679.3491    952.68318    49192.542 
     190         0.19    667.65675    952.68318    49760.611 
     200          0.2    674.17512    952.68318     49600.99 
     210         0.21    696.20887    952.68318    48857.281 
     220         0.22    722.67468    952.68318    48092.745 
     230         0.23    737.34791    952.68318    47799.802 
     240         0.24     729.4741    952.68318    48371.068 
     250         0.25    701.27017    952.68318    49707.303 
     260         0.26    664.63184    952.68318    51346.654 
     270         0.27    636.76787    952.68318    52608.901 
     280         0.28    635.78956    952.68318    52837.245 
     290         0.29    666.52882    952.68318    51950.868 
     300          0.3    711.93191    952.68318    50601.293 
     310         0.31     743.8051    952.68318    49695.922 
     320         0.32    743.59673    952.68318    49805.316 
     330         0.33    716.23325    952.68318    50862.424 
     340         0.34    685.44474    952.68318    52093.729 
     350         0.35    674.17406    952.68318    52733.317 
     360         0.36    688.61409    952.68318    52542.886 
     370         0.37    715.78698    952.68318    51808.009 
     380         0.38    734.95807    952.68318     51202.83 
     390         0.39    734.98866    952.68318    51093.088 
     400          0.4    722.94691    952.68318    51275.019 
     410         0.41    719.96611    952.68318    51150.002 
     420         0.42    743.21145    952.68318    50177.312 
     430         0.43    782.02539    952.68318    48679.747 
     440         0.44    806.06191    952.68318     47663.31 
     450         0.45    794.10773    952.68318    47707.366 
     460         0.46    746.22973    952.68318    48794.884 
     470         0.47    683.19556    952.68318    50320.528 
     480         0.48    634.65651    952.68318    51357.312 
     490         0.49    616.50846    952.68318    51356.691 
     500          0.5    621.82492    952.68318    50515.437 
     510         0.51    635.50985    952.68318    49260.796 
     520         0.52     647.9852    952.68318    47924.803 
     530         0.53     654.7858    952.68318    46760.992 
     540         0.54    654.21742    952.68318    45911.747 
     550         0.55    646.21962    952.68318    45444.478 
     560         0.56    628.60857    952.68318    45562.023 
     570         0.57    596.94258    952.68318    46399.469 
     580         0.58    553.47218    952.68318    47772.029 
     590         0.59     516.4914    952.68318    48864.942 
     600          0.6    511.50401    952.68318    48867.086 
     610         0.61    547.70411    952.68318    47469.967 
     620         0.62    607.84293    952.68318    45264.609 
     630         0.63     661.0734    952.68318    43375.909 
     640         0.64    683.77249    952.68318    42704.536 
     650         0.65    672.35541    952.68318    43461.666 
     660         0.66    639.42388    952.68318    45248.541 
     670         0.67    601.13695    952.68318    47404.161 
     680         0.68    570.69611    952.68318    49293.593 
     690         0.69    561.17211    952.68318    50336.167 
     700          0.7     586.1062    952.68318    50150.617 
     710         0.71    647.53141    952.68318    48823.184 
     720         0.72    721.52416    952.68318     47148.87 
     730         0.73     769.3803    952.68318     46270.02 
     740         0.74    775.93182    952.68318    46577.171 
     750         0.75    767.71178    952.68318    47238.165 
     760         0.76    774.78958    952.68318    47470.932 
     770         0.77    793.32401    952.68318    47299.184 
     780         0.78    801.41695    952.68318    47357.367 
     790         0.79    787.19004    952.68318    48063.367 
     800          0.8    753.45842    952.68318    49332.622 
     810         0.81    709.75993    952.68318    50903.555 
     820         0.82    670.24619    952.68318    52335.002 
     830         0.83    647.64875    952.68318    53207.255 
     840         0.84    643.97929    952.68318    53317.286 
     850         0.85    655.56853    952.68318    52815.286 
     860         0.86    677.85468    952.68318    51935.125 
     870         0.87    696.54073    952.68318    51157.672 
     880         0.88    697.65496    952.68318    50806.331 
     890         0.89     690.2511    952.68318    50690.324 
     900          0.9     692.3459    952.68318    50371.852 
     910         0.91    703.91478    952.68318    49773.558 
     920         0.92    713.12844    952.68318     49209.46 
     930         0.93    715.32372    952.68318    48921.787 
     940         0.94    711.43087    952.68318    48900.932 
     950         0.95    701.34426    952.68318    49103.097 
     960         0.96    689.89592    952.68318    49420.068 
     970         0.97    683.03984    952.68318    49701.433 
     980         0.98    679.42114    952.68318    49899.932 
     990         0.99    678.20871    952.68318    49978.721 
    1000            1    683.02142    952.68318     49881.19 
Loop time of 19.9674 on 1 procs for 900 steps with 64 atoms

Performance: 3.894 ns/day, 6.163 hours/ns, 45.073 timesteps/s
100.0% CPU use with 1 MPI tasks x no OpenMP threads

MPI task timing breakdown:
Section |  min time  |  avg time  |  max time  |%varavg| %total
---------------------------------------------------------------
Pair    | 19.958     | 19.958     | 19.958     |   0.0 | 99.95
Neigh   | 0.0031577  | 0.0031577  | 0.0031577  |   0.0 |  0.02
Comm    | 0.0031523  | 0.0031523  | 0.0031523  |   0.0 |  0.02
Output  | 0.0003972  | 0.0003972  | 0.0003972  |   0.0 |  0.00
Modify  | 0.0017119  | 0.0017119  | 0.0017119  |   0.0 |  0.01
Other   |            | 0.000717   |            |       |  0.00

Nlocal:        64.0000 ave          64 max          64 min
Histogram: 1 0 0 0 0 0 0 0 0 0
Nghost:        886.000 ave         886 max         886 min
Histogram: 1 0 0 0 0 0 0 0 0 0
Neighs:         0.00000 ave           0 max           0 min
Histogram: 1 0 0 0 0 0 0 0 0 0
FullNghs:      6194.00 ave        6194 max        6194 min
Histogram: 1 0 0 0 0 0 0 0 0 0

Total # of neighbors = 6194
Ave neighs/atom = 96.781250
Neighbor list builds = 15
Dangerous builds = 0
Setting up Verlet run ...
  Unit style    : metal
  Current step  : 1000
  Time step     : 0.001
Per MPI rank memory allocation (min/avg/max) = 3.089 | 3.089 | 3.089 Mbytes
Step Time Temp Volume Press 
    1000            1    683.02142    952.68318     49881.19 
    1100          1.1    739.24162    952.68318    49098.951 
    1200          1.2    597.51521    952.68318    54427.266 
    1300          1.3    583.35653    952.68318    54829.366 
    1400          1.4    715.56618    952.68318    51639.598 
    1500          1.5    616.75501    952.68318    51382.299 
    1600          1.6    594.98637    952.68318    44528.925 
    1700          1.7    674.02491    952.68318    44444.813 
    1800          1.8    776.78818    952.68318     45853.22 
    1900          1.9    736.00049    952.68318    49832.476 
    2000            2    713.86121    952.68318    51545.837 
    2100          2.1    593.02153    952.68318    51650.809 
    2200          2.2    647.05701    952.68318    40184.002 
    2300          2.3    539.94519    952.68318    44891.829 
    2400          2.4    639.90936    952.68318    45799.048 
    2500          2.5    667.47289    952.68318    48428.421 
    2600          2.6    702.85746    952.68318    52497.902 
    2700          2.7    758.17457    952.68318    53701.139 
    2800          2.8     785.1624    952.68318    47774.995 
    2900          2.9     668.4336    952.68318    43893.645 
    3000            3    626.64462    952.68318    46213.454 
    3100          3.1    752.29909    952.68318    45585.116 
    3200          3.2    786.95264    952.68318    49542.171 
    3300          3.3    693.61546    952.68318    53559.806 
    3400          3.4     772.6385    952.68318    54254.796 
    3500          3.5    733.65302    952.68318    58375.282 
    3600          3.6    654.20905    952.68318     50532.78 
    3700          3.7    662.30774    952.68318    47447.895 
    3800          3.8    714.72816    952.68318    46542.867 
    3900          3.9    641.91323    952.68318    53691.376 
    4000            4    887.38379    952.68318    49249.597 
    4100          4.1    724.96103    952.68318    53213.944 
    4200          4.2    688.10898    952.68318    49569.055 
    4300          4.3    685.34137    952.68318    49408.278 
    4400          4.4    681.71409    952.68318    51859.094 
    4500          4.5    609.05709    952.68318    53740.852 
    4600          4.6    689.33507    952.68318    52759.913 
    4700          4.7    718.87176    952.68318    54051.284 
    4800          4.8    791.24552    952.68318    50952.973 
    4900          4.9    657.83785    952.68318     49705.91 
    5000            5    704.60851    952.68318    45108.306 
    5100          5.1     498.7954    952.68318    51662.383 
    5200          5.2    683.00416    952.68318    52617.837 
    5300          5.3    741.84646    952.68318    54137.609 
    5400          5.4    781.80578    952.68318     48442.42 
    5500          5.5    658.60569    952.68318    47879.187 
    5600          5.6    646.03513    952.68318    45653.625 
    5700          5.7    735.20811    952.68318    45826.133 
    5800          5.8    775.47047    952.68318    53718.153 
    5900          5.9    600.99361    952.68318    64367.437 
    6000            6    834.05385    952.68318    56447.724 
    6100          6.1    741.22269    952.68318    50362.775 
    6200          6.2    678.84761    952.68318    48020.036 
    6300          6.3    648.43605    952.68318    47814.052 
    6400          6.4    616.17653    952.68318    49494.682 
    6500          6.5    737.39011    952.68318    49126.751 
    6600          6.6    835.89512    952.68318    51534.904 
    6700          6.7    721.00174    952.68318    54255.365 
    6800          6.8     689.5599    952.68318    51658.414 
    6900          6.9     664.2282    952.68318    45087.473 
    7000            7    682.71024    952.68318    40847.213 
    7100          7.1    663.96091    952.68318    44706.361 
    7200          7.2     679.5054    952.68318    51891.207 
    7300          7.3    622.96143    952.68318    55212.218 
    7400          7.4    773.32509    952.68318    48070.157 
    7500          7.5    593.12243    952.68318    51117.557 
    7600          7.6    650.80961    952.68318    47098.762 
    7700          7.7    645.67167    952.68318    46059.569 
    7800          7.8    696.54983    952.68318    46821.044 
    7900          7.9    684.29675    952.68318    51940.457 
    8000            8     740.1086    952.68318    53856.973 
    8100          8.1    826.17357    952.68318    53928.787 
    8200          8.2    677.11719    952.68318    60314.766 
    8300          8.3    768.25332    952.68318    50694.722 
    8400          8.4    654.09393    952.68318    44463.893 
    8500          8.5     696.7032    952.68318    39534.922 
    8600          8.6    672.80463    952.68318    40811.727 
    8700          8.7    759.87588    952.68318     44303.79 
    8800          8.8    764.23947    952.68318    48669.594 
    8900          8.9    634.33639    952.68318    49611.388 
    9000            9    671.61869    952.68318    37952.484 
    9100          9.1    540.90123    952.68318    40100.335 
    9200          9.2    695.05132    952.68318     36469.44 
    9300          9.3    627.81459    952.68318    45545.968 
    9400          9.4    736.03036    952.68318     42087.18 
    9500          9.5    658.01455    952.68318    44814.824 
    9600          9.6     742.2422    952.68318    41326.571 
    9700          9.7    654.80926    952.68318    36464.534 
    9800          9.8    520.48683    952.68318    38860.523 
    9900          9.9    706.84946    952.68318     35742.41 
   10000           10    685.25817    952.68318    41041.611 
Loop time of 200.693 on 1 procs for 9000 steps with 64 atoms

Performance: 3.875 ns/day, 6.194 hours/ns, 44.845 timesteps/s
100.0% CPU use with 1 MPI tasks x no OpenMP threads

MPI task timing breakdown:
Section |  min time  |  avg time  |  max time  |%varavg| %total
---------------------------------------------------------------
Pair    | 200.6      | 200.6      | 200.6      |   0.0 | 99.96
Neigh   | 0.033972   | 0.033972   | 0.033972   |   0.0 |  0.02
Comm    | 0.031421   | 0.031421   | 0.031421   |   0.0 |  0.02
Output  | 0.00054411 | 0.00054411 | 0.00054411 |   0.0 |  0.00
Modify  | 0.016926   | 0.016926   | 0.016926   |   0.0 |  0.01
Other   |            | 0.007125   |            |       |  0.00

Nlocal:        64.0000 ave          64 max          64 min
Histogram: 1 0 0 0 0 0 0 0 0 0
Nghost:        871.000 ave         871 max         871 min
Histogram: 1 0 0 0 0 0 0 0 0 0
Neighs:         0.00000 ave           0 max           0 min
Histogram: 1 0 0 0 0 0 0 0 0 0
FullNghs:      6026.00 ave        6026 max        6026 min
Histogram: 1 0 0 0 0 0 0 0 0 0

Total # of neighbors = 6026
Ave neighs/atom = 94.156250
Neighbor list builds = 160
Dangerous builds = 0
System init for write_data ...
Total wall time: 0:03:43
