LAMMPS data file via write_data, version 29 Sep 2021, timestep = 10000

64 atoms
1 atom types

0 10.519999999999747 xlo xhi
0 9.110587247812074 ylo yhi
0 9.94 zlo zhi
0 0 0 xy xz yz

Masses

1 65.38

Atoms # atomic

1 1 1.4223069596262277 5.60196931176156 3.514870249016908 0 0 0
2 1 1.1477457597691643 5.8651407984128285 8.99065234461007 0 0 0
3 1 10.162703189399503 8.10556341133487 4.478267361169275 -1 0 0
4 1 0.07628621407418675 8.059338278186214 9.252158126382792 0 0 0
5 1 6.52827958910714 1.4765177368692628 3.7907959188359617 0 0 0
6 1 6.46071446728386 0.7453260444257568 8.264308935666751 0 0 0
7 1 5.298223365364209 3.3171011133094996 2.655759855191657 0 0 0
8 1 5.205718653550725 3.346617248823817 8.182641629462392 0 0 0
9 1 1.6139928385947866 1.305177107589528 4.092057802750487 0 0 0
10 1 1.2540146899286126 1.0527843450587229 8.562574848295906 0 0 0
11 1 0.12139608438742451 3.375772791339104 3.010362301678146 0 0 0
12 1 10.321631628855478 3.5937345232905855 7.885460773866267 -1 0 0
13 1 4.1392124408046955 1.061370412880963 3.5884282069700095 0 0 0
14 1 3.8593205773504042 1.2330245449504773 8.572937619569647 0 0 0
15 1 2.7269535946790406 3.513450326642853 3.070188895192275 0 0 0
16 1 2.4842999229232436 3.4254345577458505 8.0401447197182 0 0 0
17 1 6.665904894267822 5.973808269441738 3.5823198593830607 0 0 0
18 1 6.712516349007896 5.602451038972884 8.517747926599657 0 0 0
19 1 5.32540620339009 7.784994604056003 4.572550239272289 0 0 0
20 1 5.08871786101928 7.777266642583915 9.691459487948727 0 0 0
21 1 9.37814439386802 5.800502502725126 3.7549528209178864 0 0 0
22 1 9.278274360982307 5.880950224554484 8.400723570135645 0 0 0
23 1 7.6162288803500955 8.570858049567098 4.629791602343913 0 0 0
24 1 7.832695774013358 7.805883740690757 9.511895488214428 0 0 0
25 1 4.021807152369714 5.5706566269845945 3.7449989403906754 0 0 0
26 1 3.8359082549934294 5.810803247165037 8.600061905208943 0 0 0
27 1 2.955259855826897 7.947422552801266 4.450615269937221 0 0 0
28 1 2.5575403283272946 8.04729029668648 9.567835964384095 0 0 0
29 1 9.214799524840483 1.4087175637178035 3.5951012962385502 0 0 0
30 1 9.116915889526636 1.0616700648632285 8.71927263712114 0 0 0
31 1 8.00318727844671 3.8018732504890407 2.7636797767581376 0 0 0
32 1 7.901437015957018 3.268603872721479 8.23297592745162 0 0 0
33 1 4.9024935868644945 0.964163774408299 1.0223241432843084 0 0 0
34 1 5.288636381433937 0.9907393871441538 6.201731465591943 0 0 0
35 1 3.8150155507648953 3.3386975079440813 0.46754828156074507 0 0 0
36 1 4.1788510757759845 3.0106646761186826 5.532312786718018 0 0 0
37 1 2.6547501414967907 5.772612433752026 1.2312070199740053 0 0 0
38 1 2.4500247756576337 5.610084147387389 6.46956299416892 0 0 0
39 1 1.3497061194913527 7.916600053983998 2.133191840254249 0 0 0
40 1 1.1524541944823918 7.819206285728418 6.5629687149530085 0 0 0
41 1 0.16484647123539087 1.2114812162953392 1.0973060760921298 0 0 0
42 1 0.08216590779032461 1.2831202576079512 6.347022373191995 0 0 0
43 1 2.6505543326181993 1.2823028010399675 1.6541852312234886 0 0 0
44 1 2.8146013386362454 1.1426777826845393 6.202698121944662 0 0 0
45 1 1.3907502725475387 3.3121364632594816 0.8215050448507963 0 0 0
46 1 1.4387442071997538 3.5240479801663604 5.469994279394259 0 0 0
47 1 10.310359245701449 5.691181301022877 1.166392615784714 -1 0 0
48 1 10.518941641466174 5.50622294450422 6.0380046563853345 -1 0 0
49 1 9.319970736104365 3.512866510807239 0.545522228406126 0 0 0
50 1 9.262906997463821 3.463338263545466 5.711985923700614 0 0 0
51 1 7.749110516398573 5.710465571383974 1.22581828038174 0 0 0
52 1 7.840309115083167 5.834699453678717 6.050106629498933 0 0 0
53 1 6.599214979201721 8.022092504518206 2.244061775987792 0 0 0
54 1 6.448473685500595 7.691538619925769 6.958152456827825 0 0 0
55 1 9.19591441821832 8.066595811168577 2.2495882467091333 0 0 0
56 1 9.198814319894518 8.045322807219744 6.946161408846765 0 0 0
57 1 7.708619856200415 1.0043765515034935 1.3302043230057574 0 0 0
58 1 8.056141163807581 1.4566558698499041 6.151165726879788 0 0 0
59 1 6.858764405661254 3.2154749888202367 0.5402680048140841 0 0 0
60 1 6.77815563856 3.614626496484893 5.1428311578627275 0 0 0
61 1 5.155590715799456 5.603395522538036 1.2239087002755056 0 0 0
62 1 5.180932671475886 5.1339262550888165 6.054737736174628 0 0 0
63 1 4.141669632780676 7.898654142134136 2.0296411974561366 0 0 0
64 1 3.654971911792894 7.696748447627133 6.970298257120041 0 0 0

Velocities

1 0.36583187641247805 -4.9980333408286395 3.005895308543154
2 -5.390051519395073 1.4891195404773219 -3.247490177461421
3 -2.082270231474671 -6.591427338037048 -1.9739371908772951
4 0.7835887129570612 -2.7846264933477243 -7.081170804019617
5 -0.152029848299344 -1.7088096736955722 2.5976657226372866
6 2.4876106247441 0.03222637756897412 -0.8099556601335258
7 -2.2268751874904402 1.2104511497758952 2.4971997319933816
8 2.0105737109558848 1.8414478146137865 -3.6690533542622807
9 2.108659883241622 1.7673065081553523 2.5370301788434606
10 4.591353263744663 2.082033359417926 -0.08870851610352766
11 -0.5446419794231251 0.35410202420834685 4.1735571820326625
12 -2.1716630664796543 3.952389108177043 -0.724428971710079
13 0.9678655227119208 -6.9236208583327885 2.0621365253420163
14 -1.590391413592381 4.283021513463131 3.019593321140532
15 2.572004272184354 -1.873048094106748 1.0098307424256956
16 -1.2401538101013687 -5.576833684740775 2.2033652579984664
17 -7.6316124876030615 -4.216926058088372 2.8044368782982843
18 -2.18037797901943 4.179550862605323 -0.814690478301811
19 0.7763075602355453 -1.6738519697963656 1.82953739209639
20 -0.16571963326071604 -1.9037766450298885 -4.08503679216246
21 2.4693606771577303 1.1794043237575718 -0.17044108461259422
22 -2.0770440186043877 -0.9408662071250652 1.0602259995026546
23 2.305246252941121 3.5185758810877203 8.19536998998433
24 -4.381868572880718 -2.2072452350497898 -3.980409438502206
25 3.611264859053237 -1.5527450060318424 -0.24648448385367006
26 -1.1730713172415572 0.10742663505936781 7.552779498158721
27 0.016424708328261088 4.893580524441477 -1.094980579920031
28 -0.7897506421404277 3.250464850634522 3.046111405889306
29 -3.8239849375135817 1.4307200281114805 0.5940424336027748
30 -0.9398132939196372 -2.228812236201391 1.6154676245029682
31 2.4518557552852833 -2.263537185499242 -0.26957492014720813
32 -0.7952882162420772 6.4935727608468135 -1.2307703427685626
33 -2.5418035849080596 0.8968919973382989 -5.901762888434252
34 -1.1685865715176234 1.433582803378555 -1.982349191465386
35 2.940895897489845 1.8234023168800406 -1.0005402469625162
36 0.9174072319479237 1.6299617992043482 -4.549054601187685
37 5.012879406124599 0.7732228132283457 2.9451362233588494
38 -0.6172782431555593 -0.27846429829186004 1.692290992951021
39 0.07062762811880435 2.702509625710193 -0.5096567764775446
40 -5.236686145146121 0.3527768454162542 1.0525163099219674
41 5.968178653253983 -0.11958566236016913 -0.19429936394213768
42 0.7480299633252702 1.5541731906018892 -2.6735335401154106
43 3.1084890739100253 2.477012233584694 -2.789886629309862
44 2.215260916140083 2.6041518377480717 5.401328734141142
45 -5.221279976723288 7.054544759971811 4.680250225008562
46 -2.9274861144125452 -4.640546530655124 -7.342972419300449
47 -0.9625807604562799 1.192533545243911 -2.558866088620462
48 2.93712653600163 -2.1017030611995424 0.8533051953125985
49 3.571821973227754 2.5625513226457914 -2.051737718249031
50 -0.18327316980516184 -2.268998035964453 0.5724539467644915
51 2.0117643890918306 1.2183586627743883 -0.7503404653727196
52 -1.31564166088461 -0.9765521876379718 -1.6800514261375044
53 1.4682809333096423 -0.7984361396131625 0.762297758086525
54 -1.4373418423422673 -5.874835991075462 4.311077512709224
55 -1.2124333832479988 -4.035770212039964 1.0620182893827135
56 -0.8118762665399548 4.493105621138009 1.4337172858485634
57 -0.8744112058522799 -3.2570995120973376 -4.077568014387345
58 1.0073885929244324 -0.08953222853253999 -0.734852252766685
59 0.1308308704151248 -3.4943583413638644 -1.895041479459591
60 1.9140295523233937 -0.4191657866996653 -1.7509269668729062
61 -0.6482816444298636 -1.9880191200573107 -3.7176089318627343
62 -0.5708479383561856 3.1043852618535923 2.689327680808557
63 -0.18367148546299011 -0.5487947856213076 1.0773600836244925
64 3.7291288503647917 0.39746402000011805 -2.6891436351499207
