 # Something
 64 atoms
 1 atom types
 0   10.519999999999747      xlo xhi 
 0   9.1105872478120737      ylo yhi 
 0   9.9399999999999995      zlo zhi 
   0.0000000000000000        0.0000000000000000        0.0000000000000000      xy xz yz
 Atoms
 
           1           1   1.3149999999999684        5.3145092278903769        3.7275000000000000     
           2           1   1.3149999999999684        5.3145092278903769        8.6974999999999998     
           3           1   0.0000000000000000        7.5921560398433954        3.7275000000000000     
           4           1   0.0000000000000000        7.5921560398433954        8.6974999999999998     
           5           1   6.5749999999998421       0.75921560398433940        3.7275000000000000     
           6           1   6.5749999999998421       0.75921560398433940        8.6974999999999998     
           7           1   5.2599999999998737        3.0368624159373576        3.7275000000000000     
           8           1   5.2599999999998737        3.0368624159373576        8.6974999999999998     
           9           1   1.3149999999999684       0.75921560398433940        3.7275000000000000     
          10           1   1.3149999999999684       0.75921560398433940        8.6974999999999998     
          11           1   0.0000000000000000        3.0368624159373576        3.7275000000000000     
          12           1   0.0000000000000000        3.0368624159373576        8.6974999999999998     
          13           1   3.9449999999999052       0.75921560398433940        3.7275000000000000     
          14           1   3.9449999999999052       0.75921560398433940        8.6974999999999998     
          15           1   2.6299999999999368        3.0368624159373576        3.7275000000000000     
          16           1   2.6299999999999368        3.0368624159373576        8.6974999999999998     
          17           1   6.5749999999998421        5.3145092278903769        3.7275000000000000     
          18           1   6.5749999999998421        5.3145092278903769        8.6974999999999998     
          19           1   5.2599999999998737        7.5921560398433954        3.7275000000000000     
          20           1   5.2599999999998737        7.5921560398433954        8.6974999999999998     
          21           1   9.2049999999997780        5.3145092278903769        3.7275000000000000     
          22           1   9.2049999999997780        5.3145092278903769        8.6974999999999998     
          23           1   7.8899999999998105        7.5921560398433954        3.7275000000000000     
          24           1   7.8899999999998105        7.5921560398433954        8.6974999999999998     
          25           1   3.9449999999999052        5.3145092278903769        3.7275000000000000     
          26           1   3.9449999999999052        5.3145092278903769        8.6974999999999998     
          27           1   2.6299999999999368        7.5921560398433954        3.7275000000000000     
          28           1   2.6299999999999368        7.5921560398433954        8.6974999999999998     
          29           1   9.2049999999997780       0.75921560398433940        3.7275000000000000     
          30           1   9.2049999999997780       0.75921560398433940        8.6974999999999998     
          31           1   7.8899999999998105        3.0368624159373576        3.7275000000000000     
          32           1   7.8899999999998105        3.0368624159373576        8.6974999999999998     
          33           1   5.2599999999998737        1.5184312079686795        1.2424999999999999     
          34           1   5.2599999999998737        1.5184312079686795        6.2124999999999995     
          35           1   3.9449999999999052        3.7960780199216977        1.2424999999999999     
          36           1   3.9449999999999052        3.7960780199216977        6.2124999999999995     
          37           1   2.6299999999999368        6.0737248318747161        1.2424999999999999     
          38           1   2.6299999999999368        6.0737248318747161        6.2124999999999995     
          39           1   1.3149999999999684        8.3513716438277346        1.2424999999999999     
          40           1   1.3149999999999684        8.3513716438277346        6.2124999999999995     
          41           1   0.0000000000000000        1.5184312079686795        1.2424999999999999     
          42           1   0.0000000000000000        1.5184312079686795        6.2124999999999995     
          43           1   2.6299999999999368        1.5184312079686795        1.2424999999999999     
          44           1   2.6299999999999368        1.5184312079686795        6.2124999999999995     
          45           1   1.3149999999999684        3.7960780199216977        1.2424999999999999     
          46           1   1.3149999999999684        3.7960780199216977        6.2124999999999995     
          47           1   0.0000000000000000        6.0737248318747161        1.2424999999999999     
          48           1   0.0000000000000000        6.0737248318747161        6.2124999999999995     
          49           1   9.2049999999997780        3.7960780199216977        1.2424999999999999     
          50           1   9.2049999999997780        3.7960780199216977        6.2124999999999995     
          51           1   7.8899999999998105        6.0737248318747161        1.2424999999999999     
          52           1   7.8899999999998105        6.0737248318747161        6.2124999999999995     
          53           1   6.5749999999998421        8.3513716438277346        1.2424999999999999     
          54           1   6.5749999999998421        8.3513716438277346        6.2124999999999995     
          55           1   9.2049999999997780        8.3513716438277346        1.2424999999999999     
          56           1   9.2049999999997780        8.3513716438277346        6.2124999999999995     
          57           1   7.8899999999998105        1.5184312079686795        1.2424999999999999     
          58           1   7.8899999999998105        1.5184312079686795        6.2124999999999995     
          59           1   6.5749999999998421        3.7960780199216977        1.2424999999999999     
          60           1   6.5749999999998421        3.7960780199216977        6.2124999999999995     
          61           1   5.2599999999998737        6.0737248318747161        1.2424999999999999     
          62           1   5.2599999999998737        6.0737248318747161        6.2124999999999995     
          63           1   3.9449999999999052        8.3513716438277346        1.2424999999999999     
          64           1   3.9449999999999052        8.3513716438277346        6.2124999999999995     
