ITEM: TIMESTEP
10000
ITEM: NUMBER OF ATOMS
64
ITEM: BOX BOUNDS xy xz yz pp pp pp
0.0000000000000000e+00 1.0600000000000822e+01 0.0000000000000000e+00
0.0000000000000000e+00 9.1798692801157618e+00 0.0000000000000000e+00
0.0000000000000000e+00 1.0220000000000001e+01 0.0000000000000000e+00
ITEM: ATOMS id type x y z
1 1 1.48298 5.40851 3.8571
2 1 1.18481 5.27984 9.17679
3 1 0.426971 7.66158 3.87532
4 1 10.5834 7.6794 8.864
5 1 6.67181 0.628162 3.69425
6 1 6.5381 0.720183 9.17046
7 1 5.32353 3.06536 4.24838
8 1 5.33723 3.07427 9.26775
9 1 1.49525 0.825003 3.92797
10 1 1.43507 0.76465 9.29411
11 1 10.5726 3.03367 3.9933
12 1 10.611 2.82191 9.05299
13 1 4.11181 0.796327 4.01919
14 1 4.09518 0.75142 9.00331
15 1 2.39951 3.21893 4.27057
16 1 2.66256 3.27698 8.97845
17 1 6.84591 5.39564 3.67293
18 1 6.75284 5.29461 8.3877
19 1 5.19823 7.57885 3.83126
20 1 5.4114 7.35659 9.14127
21 1 9.36338 5.16905 4.41746
22 1 9.1744 5.1503 9.17936
23 1 8.32021 7.52735 3.02636
24 1 7.77052 7.72229 8.29987
25 1 4.07866 5.16556 3.98955
26 1 4.01733 5.49021 8.58221
27 1 2.67642 7.52543 3.34476
28 1 2.68591 7.62089 8.62246
29 1 9.3906 0.897799 3.67005
30 1 9.07373 0.758322 8.59765
31 1 7.79702 2.8038 4.13029
32 1 7.93546 3.06729 9.09663
33 1 5.09453 1.64863 1.74682
34 1 5.30168 1.53164 6.5966
35 1 3.95549 3.90432 1.65414
36 1 3.89045 3.84319 6.61492
37 1 2.4945 6.23736 0.916813
38 1 2.71782 6.23283 6.45755
39 1 1.19552 8.53466 1.39915
40 1 1.27101 8.39306 6.38443
41 1 0.154342 1.70328 1.05724
42 1 10.4536 1.51867 6.20669
43 1 2.6174 1.73098 1.79447
44 1 2.6459 1.48356 6.17116
45 1 1.22037 3.81708 1.32086
46 1 1.18204 3.96873 6.52076
47 1 -0.179591 6.40444 1.05695
48 1 0.0648694 6.2611 6.80124
49 1 9.34289 3.85691 1.58078
50 1 9.21575 3.72193 6.77198
51 1 7.87122 6.29731 0.880275
52 1 8.09911 6.00824 6.46994
53 1 6.27859 8.49938 1.14525
54 1 6.71542 8.22035 5.93248
55 1 9.13541 8.56212 0.982438
56 1 9.37003 8.40518 5.89205
57 1 7.90443 1.79266 0.984357
58 1 7.89227 1.51335 6.54125
59 1 6.61142 3.98807 1.5096
60 1 6.62173 3.56961 6.43394
61 1 5.3169 6.1601 1.36797
62 1 5.39191 5.78593 6.0435
63 1 3.69008 8.52149 0.855392
64 1 4.23901 8.10948 6.26522
