LAMMPS (29 Sep 2021 - Update 1)
Reading data file ...
  triclinic box = (0.0000000 0.0000000 0.0000000) to (10.600000 9.1798693 10.380000) with tilt (0.0000000 0.0000000 0.0000000)
  1 by 1 by 1 MPI processor grid
  reading atoms ...
  64 atoms
  read_data CPU = 0.001 seconds
Neighbor list info ...
  update every 1 steps, delay 0 steps, check yes
  max neighbors/atom: 2000, page size: 100000
  master list distance cutoff = 7
  ghost atom cutoff = 7
  binsize = 3.5, bins = 4 3 3
  1 neighbor lists, perpetual/occasional/extra = 1 0 0
  (1) pair mlip, perpetual
      attributes: full, newton on
      pair build: full/bin/atomonly
      stencil: full/bin/3d
      bin: standard
Setting up Verlet run ...
  Unit style    : metal
  Current step  : 0
  Time step     : 0.001
Per MPI rank memory allocation (min/avg/max) = 3.089 | 3.089 | 3.089 Mbytes
Step Time Temp Volume Press 
       0            0         1380    1010.0427   -13219.299 
       1        0.001    1379.1414    1010.0427   -13188.936 
       2        0.002    1376.5711    1010.0427   -13098.078 
       3        0.003    1372.3031    1010.0427   -12947.202 
       4        0.004    1366.3583    1010.0427   -12736.968 
       5        0.005    1358.7636    1010.0427   -12468.218 
       6        0.006    1349.5525    1010.0427   -12141.983 
       7        0.007    1338.7653    1010.0427    -11760.82 
       8        0.008    1326.4492    1010.0427   -11327.557 
       9        0.009    1312.6578    1010.0427   -10841.979 
      10         0.01    1297.4504    1010.0427   -10308.684 
Loop time of 0.224473 on 1 procs for 10 steps with 64 atoms

Performance: 3.849 ns/day, 6.235 hours/ns, 44.549 timesteps/s
92.1% CPU use with 1 MPI tasks x no OpenMP threads

MPI task timing breakdown:
Section |  min time  |  avg time  |  max time  |%varavg| %total
---------------------------------------------------------------
Pair    | 0.22433    | 0.22433    | 0.22433    |   0.0 | 99.94
Neigh   | 0          | 0          | 0          |   0.0 |  0.00
Comm    | 3.5881e-05 | 3.5881e-05 | 3.5881e-05 |   0.0 |  0.02
Output  | 6.207e-05  | 6.207e-05  | 6.207e-05  |   0.0 |  0.03
Modify  | 2.9185e-05 | 2.9185e-05 | 2.9185e-05 |   0.0 |  0.01
Other   |            | 1.214e-05  |            |       |  0.01

Nlocal:        64.0000 ave          64 max          64 min
Histogram: 1 0 0 0 0 0 0 0 0 0
Nghost:        886.000 ave         886 max         886 min
Histogram: 1 0 0 0 0 0 0 0 0 0
Neighs:         0.00000 ave           0 max           0 min
Histogram: 1 0 0 0 0 0 0 0 0 0
FullNghs:      5504.00 ave        5504 max        5504 min
Histogram: 1 0 0 0 0 0 0 0 0 0

Total # of neighbors = 5504
Ave neighs/atom = 86.000000
Neighbor list builds = 0
Dangerous builds = 0
Setting up Verlet run ...
  Unit style    : metal
  Current step  : 10
  Time step     : 0.001
Per MPI rank memory allocation (min/avg/max) = 3.089 | 3.089 | 3.089 Mbytes
Step Time Temp Volume Press 
      10         0.01    1297.4504    1010.0427   -10308.684 
      11        0.011    1280.8924    1010.0427   -9736.8172 
      12        0.012     1263.055    1010.0427    -9124.286 
      13        0.013    1244.0147    1010.0427   -8474.4172 
      14        0.014    1223.8529    1010.0427   -7787.0152 
      15        0.015    1202.6544    1010.0427   -7066.2349 
      16        0.016     1180.508    1010.0427   -6317.5291 
      17        0.017    1157.5072    1010.0427   -5542.4972 
      18        0.018    1133.7486    1010.0427   -4747.8659 
      19        0.019    1109.3315    1010.0427   -3939.0336 
      20         0.02    1084.3581    1010.0427   -3114.8165 
      21        0.021    1058.9346    1010.0427   -2276.4315 
      22        0.022    1033.1696    1010.0427   -1428.3675 
      23        0.023     1007.173    1010.0427   -571.85793 
      24        0.024    981.05547    1010.0427    285.70125 
      25        0.025    954.92707    1010.0427    1143.2859 
      26        0.026    928.89771    1010.0427     2000.288 
      27        0.027    903.07545    1010.0427    2850.8969 
      28        0.028    877.56517    1010.0427    3690.7894 
      29        0.029    852.46824    1010.0427    4517.3346 
      30         0.03     827.8818    1010.0427    5327.1697 
      31        0.031    803.89782    1010.0427     6117.119 
      32        0.032    780.60283    1010.0427    6888.4255 
      33        0.033    758.07723    1010.0427     7637.836 
      34        0.034    736.39433    1010.0427    8364.6435 
      35        0.035    715.62001    1010.0427    9067.3897 
      36        0.036    695.81201    1010.0427    9744.0324 
      37        0.037     677.0194    1010.0427    10390.189 
      38        0.038    659.28228    1010.0427      11004.8 
      39        0.039    642.63208    1010.0427    11588.451 
      40         0.04    627.09138    1010.0427    12140.451 
      41        0.041    612.67373    1010.0427      12658.3 
      42        0.042     599.3839    1010.0427     13141.37 
      43        0.043     587.2184    1010.0427    13590.857 
      44        0.044    576.16563    1010.0427    14005.355 
      45        0.045    566.20605    1010.0427    14383.619 
      46        0.046    557.31316    1010.0427    14729.373 
      47        0.047    549.45432    1010.0427    15043.618 
      48        0.048    542.59103    1010.0427    15326.554 
      49        0.049    536.67962    1010.0427    15579.512 
      50         0.05     531.6718    1010.0427    15802.548 
      51        0.051    527.51545    1010.0427    15998.037 
      52        0.052    524.15538    1010.0427    16168.123 
      53        0.053    521.53406    1010.0427    16313.818 
      54        0.054    519.59228    1010.0427    16437.095 
      55        0.055    518.26963    1010.0427    16540.003 
      56        0.056    517.50499    1010.0427    16621.975 
      57        0.057    517.23739    1010.0427    16686.775 
      58        0.058     517.4067    1010.0427     16735.72 
      59        0.059    517.95382    1010.0427    16770.589 
      60         0.06    518.82118    1010.0427    16793.956 
      61        0.061    519.95309    1010.0427     16807.04 
      62        0.062    521.29596    1010.0427    16811.451 
      63        0.063    522.79846    1010.0427    16808.577 
      64        0.064    524.41164    1010.0427    16798.995 
      65        0.065    526.08942    1010.0427    16786.025 
      66        0.066     527.7885    1010.0427    16769.462 
      67        0.067    529.46845    1010.0427    16751.556 
      68        0.068    531.09209    1010.0427    16731.129 
      69        0.069    532.62543    1010.0427    16711.646 
      70         0.07    534.03777    1010.0427    16695.119 
      71        0.071    535.30156    1010.0427    16682.666 
      72        0.072    536.39233    1010.0427    16674.662 
      73        0.073    537.28853    1010.0427    16672.229 
      74        0.074    537.97166    1010.0427    16676.224 
      75        0.075    538.42623    1010.0427    16686.604 
      76        0.076     538.6397    1010.0427    16703.985 
      77        0.077    538.60232    1010.0427    16729.004 
      78        0.078    538.30699    1010.0427    16761.619 
      79        0.079    537.74925    1010.0427    16802.357 
      80         0.08    536.92708    1010.0427    16851.088 
      81        0.081    535.84094    1010.0427    16908.711 
      82        0.082    534.49357    1010.0427    16975.586 
      83        0.083    532.88987    1010.0427    17051.093 
      84        0.084    531.03685    1010.0427    17134.178 
      85        0.085     528.9435    1010.0427    17225.176 
      86        0.086    526.62079    1010.0427    17322.123 
      87        0.087    524.08139    1010.0427    17425.686 
      88        0.088    521.33939    1010.0427    17535.494 
      89        0.089    518.41029    1010.0427    17651.571 
      90         0.09    515.31086    1010.0427    17773.598 
      91        0.091    512.05919    1010.0427    17900.154 
      92        0.092    508.67434    1010.0427    18031.356 
      93        0.093    505.17599    1010.0427    18165.024 
      94        0.094    501.58462    1010.0427    18302.025 
      95        0.095    497.92135    1010.0427    18442.942 
      96        0.096    494.20751    1010.0427    18587.306 
      97        0.097    490.46484    1010.0427    18732.077 
      98        0.098    486.71564    1010.0427    18877.366 
      99        0.099    482.98235    1010.0427    19022.035 
     100          0.1    479.28733    1010.0427    19165.413 
Loop time of 1.81075 on 1 procs for 90 steps with 64 atoms

Performance: 4.294 ns/day, 5.589 hours/ns, 49.703 timesteps/s
100.0% CPU use with 1 MPI tasks x no OpenMP threads

MPI task timing breakdown:
Section |  min time  |  avg time  |  max time  |%varavg| %total
---------------------------------------------------------------
Pair    | 1.8096     | 1.8096     | 1.8096     |   0.0 | 99.94
Neigh   | 0.00020294 | 0.00020294 | 0.00020294 |   0.0 |  0.01
Comm    | 0.00030109 | 0.00030109 | 0.00030109 |   0.0 |  0.02
Output  | 0.00037788 | 0.00037788 | 0.00037788 |   0.0 |  0.02
Modify  | 0.00018287 | 0.00018287 | 0.00018287 |   0.0 |  0.01
Other   |            | 8.153e-05  |            |       |  0.00

Nlocal:        64.0000 ave          64 max          64 min
Histogram: 1 0 0 0 0 0 0 0 0 0
Nghost:        882.000 ave         882 max         882 min
Histogram: 1 0 0 0 0 0 0 0 0 0
Neighs:         0.00000 ave           0 max           0 min
Histogram: 1 0 0 0 0 0 0 0 0 0
FullNghs:      5734.00 ave        5734 max        5734 min
Histogram: 1 0 0 0 0 0 0 0 0 0

Total # of neighbors = 5734
Ave neighs/atom = 89.593750
Neighbor list builds = 1
Dangerous builds = 0
Setting up Verlet run ...
  Unit style    : metal
  Current step  : 100
  Time step     : 0.001
Per MPI rank memory allocation (min/avg/max) = 3.089 | 3.089 | 3.089 Mbytes
Step Time Temp Volume Press 
     100          0.1    479.28733    1010.0427    19165.413 
     110         0.11    449.11446    1010.0427    20368.875 
     120         0.12    442.93716    1010.0427      20734.2 
     130         0.13    466.84584    1010.0427    20028.893 
     140         0.14     512.1285    1010.0427    18586.017 
     150         0.15    563.02094    1010.0427     16975.53 
     160         0.16     606.3606    1010.0427    15716.861 
     170         0.17    635.71518    1010.0427    15157.754 
     180         0.18    651.31939    1010.0427    15253.168 
     190         0.19    655.73498    1010.0427    15958.328 
     200          0.2    649.84332    1010.0427     17144.66 
     210         0.21    636.01599    1010.0427    18573.962 
     220         0.22    622.02144    1010.0427    19856.511 
     230         0.23    617.52994    1010.0427    20604.646 
     240         0.24    630.29912    1010.0427     20627.45 
     250         0.25    663.87916    1010.0427    19893.796 
     260         0.26    711.99062    1010.0427    18622.957 
     270         0.27    756.00974    1010.0427    17420.762 
     280         0.28    779.15465    1010.0427    16745.428 
     290         0.29    781.54359    1010.0427    16619.719 
     300          0.3    774.52804    1010.0427    16795.782 
     310         0.31    768.65716    1010.0427    17029.127 
     320         0.32    766.99878    1010.0427    17224.988 
     330         0.33    762.76812    1010.0427    17506.795 
     340         0.34    747.90555    1010.0427    18039.644 
     350         0.35    723.57594    1010.0427    18795.532 
     360         0.36    699.90788    1010.0427    19414.761 
     370         0.37    688.65453    1010.0427    19428.427 
     380         0.38    694.33518    1010.0427    18716.367 
     390         0.39    708.79344    1010.0427    17615.864 
     400          0.4    718.64414    1010.0427     16572.78 
     410         0.41    715.11425    1010.0427    16003.035 
     420         0.42    699.15992    1010.0427    15923.236 
     430         0.43     683.5541    1010.0427    16018.276 
     440         0.44    684.29259    1010.0427    15800.317 
     450         0.45    703.53072    1010.0427      15198.1 
     460         0.46    725.21289    1010.0427    14419.633 
     470         0.47    731.84243    1010.0427    13986.004 
     480         0.48    718.89786    1010.0427    14109.621 
     490         0.49    692.58796    1010.0427     14630.77 
     500          0.5    661.00614    1010.0427     15190.97 
     510         0.51    629.13993    1010.0427    15669.666 
     520         0.52    601.85884    1010.0427    15913.397 
     530         0.53    589.96347    1010.0427    15646.313 
     540         0.54    604.11166    1010.0427    14715.162 
     550         0.55    637.07084    1010.0427    13355.649 
     560         0.56    663.96187    1010.0427    12196.859 
     570         0.57    665.65306    1010.0427    11808.587 
     580         0.58    644.09883    1010.0427    12184.219 
     590         0.59    615.87745    1010.0427    12831.202 
     600          0.6    597.08758    1010.0427    13162.121 
     610         0.61     594.7125    1010.0427    12935.612 
     620         0.62    607.05942    1010.0427    12274.596 
     630         0.63    625.68324    1010.0427    11400.028 
     640         0.64    639.39763    1010.0427    10655.479 
     650         0.65    643.01802    1010.0427    10195.233 
     660         0.66    642.74379    1010.0427    9938.3371 
     670         0.67    651.46012    1010.0427    9467.6173 
     680         0.68    674.21404    1010.0427    8681.3384 
     690         0.69    699.75363    1010.0427    8010.3836 
     700          0.7    708.79499    1010.0427    8018.9149 
     710         0.71    688.08757    1010.0427    9118.2731 
     720         0.72    639.34974    1010.0427    11107.476 
     730         0.73    580.22947    1010.0427     13314.36 
     740         0.74     538.6595    1010.0427    14838.214 
     750         0.75    539.62871    1010.0427    14887.032 
     760         0.76    586.09767    1010.0427    13523.242 
     770         0.77    654.22887    1010.0427    11596.534 
     780         0.78    710.52009    1010.0427    10188.193 
     790         0.79    733.94073    1010.0427    9935.5923 
     800          0.8     727.6916    1010.0427    10779.591 
     810         0.81    712.40419    1010.0427    11992.594 
     820         0.82    705.86792    1010.0427    12964.356 
     830         0.83    710.10562    1010.0427     13517.61 
     840         0.84     714.8321    1010.0427    13911.298 
     850         0.85    708.77058    1010.0427    14542.953 
     860         0.86    689.04557    1010.0427    15558.314 
     870         0.87    663.67997    1010.0427    16773.483 
     880         0.88    646.43782    1010.0427    17761.673 
     890         0.89     651.4895    1010.0427    17923.945 
     900          0.9    689.72314    1010.0427    16969.631 
     910         0.91    759.40542    1010.0427    15138.807 
     920         0.92    835.69718    1010.0427    13242.713 
     930         0.93    882.74902    1010.0427    12273.403 
     940         0.94    878.41071    1010.0427    12765.325 
     950         0.95    824.12053    1010.0427    14679.261 
     960         0.96    745.91556    1010.0427    17172.451 
     970         0.97    687.25582    1010.0427    18906.446 
     980         0.98     679.2415    1010.0427    19057.894 
     990         0.99    710.65889    1010.0427    18004.452 
    1000            1    741.10347    1010.0427     16968.11 
Loop time of 18.1852 on 1 procs for 900 steps with 64 atoms

Performance: 4.276 ns/day, 5.613 hours/ns, 49.491 timesteps/s
100.0% CPU use with 1 MPI tasks x no OpenMP threads

MPI task timing breakdown:
Section |  min time  |  avg time  |  max time  |%varavg| %total
---------------------------------------------------------------
Pair    | 18.176     | 18.176     | 18.176     |   0.0 | 99.95
Neigh   | 0.0030374  | 0.0030374  | 0.0030374  |   0.0 |  0.02
Comm    | 0.003015   | 0.003015   | 0.003015   |   0.0 |  0.02
Output  | 0.00047938 | 0.00047938 | 0.00047938 |   0.0 |  0.00
Modify  | 0.001687   | 0.001687   | 0.001687   |   0.0 |  0.01
Other   |            | 0.0007     |            |       |  0.00

Nlocal:        64.0000 ave          64 max          64 min
Histogram: 1 0 0 0 0 0 0 0 0 0
Nghost:        880.000 ave         880 max         880 min
Histogram: 1 0 0 0 0 0 0 0 0 0
Neighs:         0.00000 ave           0 max           0 min
Histogram: 1 0 0 0 0 0 0 0 0 0
FullNghs:      5742.00 ave        5742 max        5742 min
Histogram: 1 0 0 0 0 0 0 0 0 0

Total # of neighbors = 5742
Ave neighs/atom = 89.718750
Neighbor list builds = 15
Dangerous builds = 0
Setting up Verlet run ...
  Unit style    : metal
  Current step  : 1000
  Time step     : 0.001
Per MPI rank memory allocation (min/avg/max) = 3.089 | 3.089 | 3.089 Mbytes
Step Time Temp Volume Press 
    1000            1    741.10347    1010.0427     16968.11 
    1100          1.1    654.56119    1010.0427    17445.253 
    1200          1.2    782.80651    1010.0427    13749.196 
    1300          1.3    666.29989    1010.0427    16371.781 
    1400          1.4    645.44142    1010.0427     12466.84 
    1500          1.5     712.3079    1010.0427    11639.269 
    1600          1.6    771.24683    1010.0427    15483.866 
    1700          1.7    838.74896    1010.0427    18608.651 
    1800          1.8    752.22866    1010.0427    21743.685 
    1900          1.9     609.0198    1010.0427    18708.327 
    2000            2    661.89437    1010.0427    8122.6983 
    2100          2.1    598.42747    1010.0427    12738.244 
    2200          2.2    766.43994    1010.0427     13269.11 
    2300          2.3    673.49489    1010.0427    17234.333 
    2400          2.4     689.9752    1010.0427    15055.703 
    2500          2.5    621.33224    1010.0427     12800.87 
    2600          2.6    556.53422    1010.0427    10925.792 
    2700          2.7    608.74511    1010.0427    7098.4123 
    2800          2.8    698.98374    1010.0427    11313.209 
    2900          2.9     618.7779    1010.0427    19005.694 
    3000            3    792.93231    1010.0427    14866.327 
    3100          3.1    694.73735    1010.0427    18982.459 
    3200          3.2    693.14504    1010.0427    13591.335 
    3300          3.3    638.27257    1010.0427    8147.4866 
    3400          3.4    552.12208    1010.0427    12620.265 
    3500          3.5    725.98392    1010.0427     9129.854 
    3600          3.6    614.51006    1010.0427    16765.731 
    3700          3.7    762.67532    1010.0427    15093.361 
    3800          3.8    621.05625    1010.0427    21430.068 
    3900          3.9    850.45263    1010.0427    19449.905 
    4000            4    770.29962    1010.0427    25067.191 
    4100          4.1     786.7388    1010.0427    17666.601 
    4200          4.2    659.76212    1010.0427     16846.32 
    4300          4.3    577.16854    1010.0427    20070.453 
    4400          4.4    792.74001    1010.0427    17136.317 
    4500          4.5    721.23947    1010.0427    17778.226 
    4600          4.6    760.55381    1010.0427    13152.204 
    4700          4.7    716.72158    1010.0427      13481.9 
    4800          4.8    670.89324    1010.0427    16222.275 
    4900          4.9    800.53911    1010.0427    14220.935 
    5000            5    692.14074    1010.0427    17794.928 
    5100          5.1    728.15614    1010.0427    12909.646 
    5200          5.2    656.76783    1010.0427    16851.453 
    5300          5.3    706.51624    1010.0427    16493.484 
    5400          5.4    689.55639    1010.0427    19638.744 
    5500          5.5    839.10933    1010.0427    18730.724 
    5600          5.6    672.84001    1010.0427    24748.162 
    5700          5.7     685.9966    1010.0427    18093.983 
    5800          5.8    756.65097    1010.0427    8587.2102 
    5900          5.9    629.73712    1010.0427    11440.788 
    6000            6    694.14361    1010.0427    12492.146 
    6100          6.1    641.76985    1010.0427    16686.853 
    6200          6.2    670.96047    1010.0427    18289.277 
    6300          6.3    719.80926    1010.0427    19422.856 
    6400          6.4    841.18804    1010.0427    12512.202 
    6500          6.5    717.50806    1010.0427    12319.737 
    6600          6.6    644.52009    1010.0427    14433.288 
    6700          6.7    696.92788    1010.0427    14764.953 
    6800          6.8    691.98133    1010.0427     18987.97 
    6900          6.9    675.28644    1010.0427    18281.816 
    7000            7    705.26952    1010.0427    12555.488 
    7100          7.1    532.92574    1010.0427    12111.284 
    7200          7.2    618.52842    1010.0427    10272.123 
    7300          7.3    633.70981    1010.0427    17115.712 
    7400          7.4    775.38117    1010.0427    15909.672 
    7500          7.5     711.9607    1010.0427    17290.335 
    7600          7.6    755.24391    1010.0427    12797.335 
    7700          7.7    515.33978    1010.0427    15047.829 
    7800          7.8     653.7249    1010.0427    11332.539 
    7900          7.9    689.96526    1010.0427    14484.787 
    8000            8    677.35813    1010.0427    16011.672 
    8100          8.1    587.84503    1010.0427    19678.173 
    8200          8.2    743.05967    1010.0427    15867.289 
    8300          8.3     753.9781    1010.0427    17077.571 
    8400          8.4    703.71779    1010.0427    17112.157 
    8500          8.5     684.5658    1010.0427    14647.003 
    8600          8.6    615.45341    1010.0427    13241.595 
    8700          8.7    660.37135    1010.0427    10714.286 
    8800          8.8    752.55897    1010.0427    17730.988 
    8900          8.9    778.12886    1010.0427    20684.673 
    9000            9    594.25137    1010.0427    21431.326 
    9100          9.1    641.69492    1010.0427     17740.55 
    9200          9.2    645.76484    1010.0427    15094.287 
    9300          9.3    607.66363    1010.0427    14247.142 
    9400          9.4    677.79128    1010.0427    16149.197 
    9500          9.5    717.91908    1010.0427    18591.058 
    9600          9.6      770.528    1010.0427    19474.389 
    9700          9.7    801.44998    1010.0427    21861.348 
    9800          9.8    749.61153    1010.0427    14642.257 
    9900          9.9    592.06987    1010.0427    15944.861 
   10000           10    691.03336    1010.0427    13059.496 
Loop time of 190.179 on 1 procs for 9000 steps with 64 atoms

Performance: 4.089 ns/day, 5.870 hours/ns, 47.324 timesteps/s
100.0% CPU use with 1 MPI tasks x no OpenMP threads

MPI task timing breakdown:
Section |  min time  |  avg time  |  max time  |%varavg| %total
---------------------------------------------------------------
Pair    | 190.09     | 190.09     | 190.09     |   0.0 | 99.95
Neigh   | 0.034731   | 0.034731   | 0.034731   |   0.0 |  0.02
Comm    | 0.031233   | 0.031233   | 0.031233   |   0.0 |  0.02
Output  | 0.0005381  | 0.0005381  | 0.0005381  |   0.0 |  0.00
Modify  | 0.016047   | 0.016047   | 0.016047   |   0.0 |  0.01
Other   |            | 0.006884   |            |       |  0.00

Nlocal:        64.0000 ave          64 max          64 min
Histogram: 1 0 0 0 0 0 0 0 0 0
Nghost:        878.000 ave         878 max         878 min
Histogram: 1 0 0 0 0 0 0 0 0 0
Neighs:         0.00000 ave           0 max           0 min
Histogram: 1 0 0 0 0 0 0 0 0 0
FullNghs:      5746.00 ave        5746 max        5746 min
Histogram: 1 0 0 0 0 0 0 0 0 0

Total # of neighbors = 5746
Ave neighs/atom = 89.781250
Neighbor list builds = 164
Dangerous builds = 0
System init for write_data ...
Total wall time: 0:03:30
