LAMMPS data file via write_data, version 29 Sep 2021, timestep = 10000

64 atoms
1 atom types

0 10.600000000000822 xlo xhi
0 9.179869280115762 ylo yhi
0 10.38 zlo zhi
0 0 0 xy xz yz

Masses

1 65.38

Atoms # atomic

1 1 1.1448230848570078 5.424798855927284 4.1498663529281465 0 0 0
2 1 1.3772783851992005 5.343387922464531 9.050071456277411 0 0 0
3 1 0.13174160990786443 7.535867579754207 3.2172779676570418 0 0 0
4 1 10.472815993944728 7.653075305276225 8.973724793362537 -1 0 0
5 1 6.529334204982957 0.6264375236168324 3.7762973464650513 0 0 0
6 1 6.277486578912769 0.8339466291735708 9.672436999789609 0 0 0
7 1 5.351204548665937 3.2375341739529695 3.7607946876454275 0 0 0
8 1 5.410300558215549 3.13631868792834 8.970381801676556 0 0 0
9 1 1.4455980885358288 0.7253415215270326 4.015158233510855 0 0 0
10 1 1.225004042855843 0.9259775734549811 9.196539366668675 0 0 0
11 1 10.542739004150649 2.979121089360434 3.772844053820141 -1 0 0
12 1 0.035431530152289524 2.85145234703437 8.895342031573815 0 0 0
13 1 4.03282086917108 0.8469065910136295 3.882456534189269 0 0 0
14 1 3.835826496812496 0.8178752201902277 8.923534129823905 0 0 0
15 1 2.5158396053595684 3.1289306177802594 3.4584783991760957 0 0 0
16 1 2.8495833916280207 3.2505868647314333 9.046719217756468 0 0 0
17 1 6.5209604788881315 5.5262695009232825 4.122401677176937 0 0 0
18 1 6.614891587584158 5.440579267619876 9.05596520737482 0 0 0
19 1 5.200794796344459 7.596825287771942 3.883947626107956 0 0 0
20 1 5.140522927097993 7.870978833897108 9.089632877806409 0 0 0
21 1 9.092478774119478 5.52558309963214 3.780386593787618 0 0 0
22 1 9.192288257892104 5.392686926809526 9.013403423453088 0 0 0
23 1 8.166232904498667 7.819755219363851 4.013620769692464 0 0 0
24 1 7.922272201849715 7.878426701251939 8.984405076066755 0 0 0
25 1 3.857912994777108 5.4578752483476345 3.6872270866960495 0 0 0
26 1 3.8937765273686664 5.61738323932256 9.421469747093344 0 0 0
27 1 2.6888551538072396 7.7555603943444025 3.9117856453123343 0 0 0
28 1 2.647488395895669 7.725377374332029 9.068759990430848 0 0 0
29 1 9.089010090389374 1.0273623779557497 4.035473143434543 0 0 0
30 1 9.508379301585194 0.649423994053194 9.857440898682787 0 0 0
31 1 7.901599362641095 3.325123277601314 3.7753589891237134 0 0 0
32 1 7.931666651449815 3.1596779512434954 8.914344871289138 0 0 0
33 1 5.526178032102236 1.556238007673948 1.510758773417236 0 0 0
34 1 5.327926832590531 1.4571149219902872 6.188600863801309 0 0 0
35 1 3.864825773078091 3.7066877939312666 1.1552264028886836 0 0 0
36 1 3.9712779677227394 3.716057357582684 6.409029763799677 0 0 0
37 1 2.40931859447911 6.458350666231339 1.488346955709197 0 0 0
38 1 2.7855306417832293 5.955204743957065 6.741313332289569 0 0 0
39 1 1.195071672536348 8.335862879970449 0.6203036601568137 0 0 0
40 1 1.5038367812085536 8.410546557547207 6.4591992006449965 0 0 0
41 1 0.12240950565902038 1.0126011790710088 1.5614824588149128 0 0 0
42 1 0.006865452988224784 1.6481275053733124 6.3850945051174 0 0 0
43 1 2.5028561635818307 1.438366530690804 1.1027054018851852 0 0 0
44 1 2.6111808537740293 1.4186691334436723 6.738926333526635 0 0 0
45 1 1.1532315182805322 3.6766550258173365 1.0403400384210706 0 0 0
46 1 1.5155258424623939 3.7639115862688124 6.581414622286369 0 0 0
47 1 0.12528502593580576 5.999235455789832 0.9546818075187162 0 0 0
48 1 0.14110683164181684 5.943033933817898 6.4389097253145975 0 0 0
49 1 9.497812937174059 3.8293271455407574 1.69852684406277 0 0 0
50 1 9.402270058201953 3.725552036442423 6.5641802181339735 0 0 0
51 1 7.873303915376371 5.843951162654369 1.4957262825766884 0 0 0
52 1 7.9680037697950485 6.045365439993496 6.56090289343718 0 0 0
53 1 6.807696762116034 8.448508567625195 1.4078316340088302 0 0 0
54 1 6.624959586845654 8.2701409702744 6.125396738934111 0 0 0
55 1 9.21341520124927 8.27547051216284 1.3942756175635864 0 0 0
56 1 9.590908199623561 8.212249511878547 6.245906359842115 0 0 0
57 1 8.178681236287591 1.8099626169792467 1.5326511018984148 0 0 0
58 1 8.035008917209433 1.171520247409384 7.158450720831568 0 0 0
59 1 6.538738222214134 3.6996416349034376 1.1466472518167583 0 0 0
60 1 6.761934469237056 3.5311193373757117 6.176272123491819 0 0 0
61 1 5.100458461824279 6.224050838989148 1.2340232956559092 0 0 0
62 1 5.266833741615401 6.1220194459555834 6.458533941026088 0 0 0
63 1 3.8855412864946515 8.518484306203598 1.5340022661560109 0 0 0
64 1 3.945047345393541 8.445342712500004 6.672791869118267 0 0 0

Velocities

1 0.6694024010114473 -1.0299833921925725 -2.7716310781580704
2 -0.17733895271642688 -1.1153031053786286 3.210461756619336
3 -0.06830827533271147 -2.511135362781595 -1.5698301233516743
4 -2.6854078006866775 0.789510055129646 2.924919907174282
5 -0.17641592198687722 1.8489328751806404 0.4821777922121123
6 -0.15737510348147646 -4.497668041875032 2.522174402877445
7 4.463080478633979 0.4909686880937937 1.5072635936175531
8 -5.341709303251197 3.7423925809458924 1.5460291965800914
9 -6.007731499769431 0.25023667862274934 -0.9918697507309964
10 -0.8896539886103886 1.4902833103447666 0.3741403731205834
11 4.752474476546733 -1.1762273228887068 0.9640778155313262
12 -1.2878849222102449 -2.5154388440486457 2.1204960666469197
13 1.5637547874996338 3.216982651359895 -0.44623369477006064
14 1.0673623349056733 -0.27502472004445305 -5.51256641377548
15 -3.042950131038498 -7.549099251841963 -7.220555818870506
16 2.397933246860227 4.215674610248401 -1.46032276128115
17 2.2939422382817103 -5.463666740744162 1.2368311685156959
18 -1.499735772177868 0.8464164873295291 -2.302600375585484
19 -0.4023521938315031 1.4842184768963012 2.061466233073777
20 1.0463079767995813 0.8784584248549617 4.18431239847623
21 -1.719374168231909 -3.999392481175758 -2.6663601694622088
22 -1.9542455782306314 -4.728629759311964 -1.5276678988229566
23 5.933206125467814 -4.764502784852697 0.361034873742057
24 7.077880611212374 3.216156446167651 -4.470475951718407
25 -4.798504512855484 -0.2769834570718842 3.8789335090309947
26 4.99408201065544 1.5347441791850627 -2.8330102171159504
27 -2.240563643691424 4.198962170687108 0.35644071973931657
28 -3.0005211797050424 -1.5928393124881302 3.986506980728668
29 2.8572770578376105 2.9954058579848493 -2.011598579689697
30 0.8624715698515547 -0.804945717329509 2.2005694220069385
31 1.217160993822231 -1.5149390552408297 -0.7733393006635919
32 0.28775855993461447 0.3867099025837732 -2.1122618467619394
33 -1.459798105241852 -7.307432176098427 -1.2732149383924238
34 0.16736509768328947 -1.11766765194704 -5.999355227752254
35 0.6596007141004184 0.6411999074313599 0.43640992213028207
36 -4.893645653074887 2.7841406240302486 2.899434964007327
37 -0.8490435982190964 -3.3867511985102796 1.320181394285453
38 4.1309139995070945 0.796889280137297 0.2568467568799615
39 1.9252951351580587 -0.45880265410911525 1.9859953324062625
40 -5.194212897875669 3.513232584506067 3.0586893306778404
41 1.038701536966875 -2.8317305038874054 -2.4898361988007425
42 -0.7573751110075132 -3.630365151292831 3.451264060081448
43 2.8215544115323645 0.713514828834893 8.427627953134499
44 -0.5663041411927753 -4.525134119206027 0.8021937216432465
45 0.24062369085185156 1.211113847471217 0.961745855657709
46 3.759230371424187 2.5992736984253906 2.5781155649604925
47 1.3501536429483003 0.037191309852082424 -5.925907064603699
48 -2.5797883383037075 7.903293173887256 -4.011891243496803
49 1.1880432911830783 0.8922300493015654 -1.0666351750475116
50 -2.127552735696586 1.2379172187023908 -0.44918940641270483
51 0.38708007752724916 -0.7700060053338936 4.104468636727284
52 -2.784259142464885 0.48650786815317626 1.2346032909761295
53 1.6142629618625226 2.452332248503006 -2.7073797321369075
54 -7.41606737110732 4.319483483619432 -1.4362977457733368
55 -1.8533545220168017 2.696638710564061 -0.6549657225494074
56 2.1097468088396667 1.0789624743926314 6.070369672806335
57 1.1872523177762102 2.3584790979319727 -3.259629066756207
58 0.183388742264047 1.0927171097547639 -2.660398393447018
59 0.8604988747335315 -2.461121750514818 5.37866029825135
60 -2.3182336319205628 0.14553642991362786 -3.491984571667491
61 0.8005202210707832 1.4291388589367744 -1.6442157071592245
62 1.4463981174019263 3.8759065060570337 -2.8051729656134565
63 1.7908827230123427 -2.8379787501885447 -0.5047668012433538
64 -0.895899409234883 -0.7089833956664718 2.166720977291623
