ITEM: TIMESTEP
10000
ITEM: NUMBER OF ATOMS
64
ITEM: BOX BOUNDS xy xz yz pp pp pp
0.0000000000000000e+00 1.0600000000000822e+01 0.0000000000000000e+00
0.0000000000000000e+00 9.1798692801157618e+00 0.0000000000000000e+00
0.0000000000000000e+00 1.0380000000000001e+01 0.0000000000000000e+00
ITEM: ATOMS id type x y z
1 1 1.14482 5.4248 4.14987
2 1 1.37728 5.34339 9.05007
3 1 0.131742 7.53587 3.21728
4 1 10.4728 7.65308 8.97372
5 1 6.52933 0.626438 3.7763
6 1 6.27749 0.833947 9.67244
7 1 5.3512 3.23753 3.76079
8 1 5.4103 3.13632 8.97038
9 1 1.4456 0.725342 4.01516
10 1 1.225 0.925978 9.19654
11 1 10.5427 2.97912 3.77284
12 1 0.0354315 2.85145 8.89534
13 1 4.03282 0.846907 3.88246
14 1 3.83583 0.817875 8.92353
15 1 2.51584 3.12893 3.45848
16 1 2.84958 3.25059 9.04672
17 1 6.52096 5.52627 4.1224
18 1 6.61489 5.44058 9.05597
19 1 5.20079 7.59683 3.88395
20 1 5.14052 7.87098 9.08963
21 1 9.09248 5.52558 3.78039
22 1 9.19229 5.39269 9.0134
23 1 8.16623 7.81976 4.01362
24 1 7.92227 7.87843 8.98441
25 1 3.85791 5.45788 3.68723
26 1 3.89378 5.61738 9.42147
27 1 2.68886 7.75556 3.91179
28 1 2.64749 7.72538 9.06876
29 1 9.08901 1.02736 4.03547
30 1 9.50838 0.649424 9.85744
31 1 7.9016 3.32512 3.77536
32 1 7.93167 3.15968 8.91434
33 1 5.52618 1.55624 1.51076
34 1 5.32793 1.45711 6.1886
35 1 3.86483 3.70669 1.15523
36 1 3.97128 3.71606 6.40903
37 1 2.40932 6.45835 1.48835
38 1 2.78553 5.9552 6.74131
39 1 1.19507 8.33586 0.620304
40 1 1.50384 8.41055 6.4592
41 1 0.12241 1.0126 1.56148
42 1 0.00686545 1.64813 6.38509
43 1 2.50286 1.43837 1.10271
44 1 2.61118 1.41867 6.73893
45 1 1.15323 3.67666 1.04034
46 1 1.51553 3.76391 6.58141
47 1 0.125285 5.99924 0.954682
48 1 0.141107 5.94303 6.43891
49 1 9.49781 3.82933 1.69853
50 1 9.40227 3.72555 6.56418
51 1 7.8733 5.84395 1.49573
52 1 7.968 6.04537 6.5609
53 1 6.8077 8.44851 1.40783
54 1 6.62496 8.27014 6.1254
55 1 9.21342 8.27547 1.39428
56 1 9.59091 8.21225 6.24591
57 1 8.17868 1.80996 1.53265
58 1 8.03501 1.17152 7.15845
59 1 6.53874 3.69964 1.14665
60 1 6.76193 3.53112 6.17627
61 1 5.10046 6.22405 1.23402
62 1 5.26683 6.12202 6.45853
63 1 3.88554 8.51848 1.534
64 1 3.94505 8.44534 6.67279
