LAMMPS data file via write_data, version 29 Sep 2021, timestep = 10000

64 atoms
1 atom types

0 10.479999999999203 xlo xhi
0 9.075946231660229 ylo yhi
0 9.9 zlo zhi
0 0 0 xy xz yz

Masses

1 65.38

Atoms # atomic

1 1 1.5651974660644818 5.454687416032128 3.7352257099065382 0 0 0
2 1 1.1307439679344042 5.086613161006924 8.515376776293158 0 0 0
3 1 0.19223224279050563 7.879990168052278 3.6400977391000633 0 0 0
4 1 0.05880591258308332 7.3172469120884855 8.573358063178878 0 0 0
5 1 6.810307277307485 0.8320913176283413 3.5610386320418086 0 0 0
6 1 6.645393946942428 0.6441122572941204 8.563463736307877 0 0 0
7 1 5.413653793290931 3.1664142452870885 3.6193692217285562 0 0 0
8 1 5.135434067911775 2.7523202426241693 8.482350582177887 0 0 0
9 1 1.364612269142224 1.3845139769973336 3.4386266507269276 0 0 0
10 1 1.2197802541778968 0.6151769149990095 8.536640390166701 0 0 0
11 1 0.041876516071767025 3.5335132912719533 3.8027955251789916 0 0 0
12 1 10.47965007841158 2.7936913150415204 8.861700025860758 -1 0 0
13 1 3.95805826486004 0.8647049054147318 3.6513631128612847 0 0 0
14 1 3.872241473912087 0.7608831574976606 9.004237782792 0 0 0
15 1 2.7315352531809705 3.2464493928965283 4.051592247677569 0 0 0
16 1 2.6335331040880723 2.882832100954152 8.862914095649886 0 0 0
17 1 6.483772090140769 5.3557091558022165 3.4173671428284282 0 0 0
18 1 6.301412455468099 4.955386770041755 8.567705074442381 0 0 0
19 1 5.403311668451044 7.700709301080094 3.7828761734341025 0 0 0
20 1 5.259610917512708 7.537005200158551 8.601744267368328 0 0 0
21 1 9.170536522604781 5.529323062973522 3.7902672929515107 0 0 0
22 1 8.94928900884174 5.013470103989178 8.689201732568554 0 0 0
23 1 8.066966719667617 7.766491684428557 3.9666014031171892 0 0 0
24 1 7.9037909690455495 7.311382287130785 8.767303980850713 0 0 0
25 1 3.9015092713729222 5.684144158912143 3.38780417837099 0 0 0
26 1 3.981705575789269 5.205146370839407 8.762591648661063 0 0 0
27 1 2.807243194091022 7.780542376377572 3.9274607798244072 0 0 0
28 1 2.6100143368699835 7.55324008983566 8.807449470410274 0 0 0
29 1 9.36167735915503 1.1019308596203226 3.521161926599491 0 0 0
30 1 9.218768497644158 0.7210688606795698 8.724063817972548 0 0 0
31 1 7.92554864132384 3.1323382949461105 4.04643929059321 0 0 0
32 1 7.607752769205789 3.0363478436370177 8.442634334867808 0 0 0
33 1 5.182149952163461 1.5140937426323706 1.332391928563256 0 0 0
34 1 5.126711391398345 1.322501923054124 5.97511719849018 0 0 0
35 1 3.8372001365956083 3.4895833206082716 1.2771990793134884 0 0 0
36 1 4.027280005553236 3.731229878469808 6.153957574774276 0 0 0
37 1 2.677767522874875 6.066283931608158 1.066529725548948 0 0 0
38 1 2.78500814576782 6.1254738562487 6.472480588749805 0 0 0
39 1 1.1864821110644506 8.188487663871717 1.2206617008364509 0 0 0
40 1 1.0780375909454578 8.11996169105394 6.04202012578466 0 0 0
41 1 10.209940132671129 1.6324915173843582 1.0968304781152358 -1 0 0
42 1 0.06942957754457002 1.438699976733252 6.0018157809681245 0 0 0
43 1 2.3339217304347395 1.4009151165520408 1.1132802124813233 0 0 0
44 1 2.663342104033159 1.5401643818568518 6.50081907709228 0 0 0
45 1 1.1408240156153135 3.8264453384107773 1.20272712803031 0 0 0
46 1 1.5517532418143085 3.8459616901717344 6.285971144368017 0 0 0
47 1 0.15190477941248912 5.756661501500188 1.4823511113415957 0 0 0
48 1 0.03531491901656945 6.008221029430819 6.015026518342667 0 0 0
49 1 8.924500915258871 3.65906483723327 1.7496512348451758 0 0 0
50 1 9.338719151309494 3.837942645991551 6.652662662910628 0 0 0
51 1 7.7298000705536705 5.953024695778429 0.9568531629152163 0 0 0
52 1 8.010613627032873 6.017499719670206 5.91541653940478 0 0 0
53 1 6.421683394561367 8.162792497299714 1.0058117347703603 0 0 0
54 1 6.641327161756357 8.441180425001823 6.261274803267796 0 0 0
55 1 9.058499264164517 8.290594318283354 1.287429576633891 0 0 0
56 1 9.137755547596136 8.249996908730566 6.503611746682417 0 0 0
57 1 7.704782648216681 1.4711446665838281 0.7327456535497725 0 0 0
58 1 8.053463968040937 1.5019174304118377 5.924113353437756 0 0 0
59 1 6.550767257387239 3.542235485430094 1.144472296877272 0 0 0
60 1 6.473687033659906 3.8217700000562442 6.115254892674008 0 0 0
61 1 5.16734948595094 5.90409169258656 1.4343532856935841 0 0 0
62 1 5.3970777163013395 6.184804329116182 6.130549065870892 0 0 0
63 1 3.76999878195013 8.41238104159292 1.135217885816647 0 0 0
64 1 3.756940733478421 8.37318496423238 6.508579925340416 0 0 0

Velocities

1 -1.7513713603154806 -0.9331654596029808 0.6121733854947142
2 -1.0422300028136402 -0.4580826427324653 -2.979993889033209
3 -2.816729285439971 -0.7551311934534521 2.180390390600087
4 -6.886468374417688 -3.130205660320632 0.3627105712042928
5 -2.153233923301315 -3.08804511392806 -2.339145550505576
6 -1.0911172734635182 -2.8003778418744574 -4.949107840484433
7 -1.0824323100593818 0.35943381569573246 -0.8056588042434468
8 -1.2061516325098007 -0.5106401627641565 3.5438719209403247
9 1.180241434283079 -4.283877579671206 -1.4610994996963629
10 -5.233474776575817 -1.1843408920033625 5.513805982453435
11 0.7983482666476541 0.08419729107469408 -0.4979864841411404
12 2.0721840067805655 -1.4036972445984541 -1.4363358599342158
13 3.7161231279990874 -1.2748281535338724 0.4125959476801148
14 -0.8452178129700177 -0.8810753582656843 0.678554276549021
15 -1.287636783256347 0.14619057109271477 -1.718624064036844
16 -2.935914802357287 -3.8072874272576653 -0.37749408822199443
17 7.798893269088645 1.4528125669365612 -1.7273365449781022
18 -1.4918898496724773 0.3116743814001612 -1.7043450419339503
19 -2.9577524127744783 3.6960289018024657 -6.4161779368319385
20 -0.7121819899605449 -3.934295831549906 6.129071678544759
21 5.591317287154452 0.6547498963406082 -0.5709031652751699
22 -1.415685241485625 -4.830625766594784 2.0201008380759684
23 0.2497272166675421 7.077672050802858 -1.242742455801323
24 -1.1571338146536703 0.7836423282281108 2.4208908494049544
25 -0.30243546255984216 4.853129777579887 -1.0539622652311942
26 -1.9098431895002275 -3.9675165486063513 -3.3307192707895017
27 2.8811059064302142 -0.8283202634178077 -1.299334470125331
28 1.6837021476554097 -0.12204032750660868 3.1077421878883515
29 3.369391836609581 6.024786355811285 0.5436317023595363
30 0.768815485759642 -3.5251798243321755 2.776562282189778
31 -2.7536113529950517 2.121913820953948 3.2219452634648227
32 0.3285211947804328 1.536832174850694 -4.684000742943239
33 1.6862216650448296 0.22324189767216807 -0.2673923910658152
34 -0.1188447670104198 3.727159419583419 -3.4258820013217908
35 -0.5928905652403207 -4.8314401860941185 -4.205750672513343
36 3.8619527060612002 -3.0635622433695042 1.474761882266794
37 -0.7539450384695753 4.514135305879601 -5.197165951984069
38 0.878935419829301 1.2592303027127791 -5.1008570432753055
39 1.3694067588223218 0.08086108331014061 -0.5994028121551559
40 -1.788287037668568 1.4548818238616348 -0.002396611561258199
41 5.679956321035371 -3.0267085952417787 -2.9207542338426027
42 -0.7782194768276853 -0.05212666169496619 -2.4569819351398894
43 2.058613842533041 0.1939353114821288 3.5758080088516597
44 -0.5424838603188598 4.429243290145172 -1.450644234797782
45 1.261873375837383 3.778085933994116 2.587784982679087
46 8.511062096336214 6.435441001085032 2.0239823454301185
47 0.3477162772725442 -5.60046171051577 4.740993942758031
48 0.38172388899133836 -2.7462016131812343 -0.783263778907369
49 -4.7480395774435475 -3.940739034002533 -0.7243220570747868
50 -0.8133973723118324 -0.8846953685650476 -1.7904201019458352
51 -4.211722064524178 -4.960848849076092 2.8037852381991097
52 3.262426860566995 -0.4928340746933183 -0.9596928823703312
53 1.0203946276877278 1.0618431627652039 5.550394986740923
54 -0.5629206572326815 1.3633968479654806 1.6831339532037917
55 -2.0578071696281737 1.0522309298611146 -1.351725719567171
56 1.125403815116887 2.4072122690214925 -0.8089956413596114
57 0.8405551827951933 -1.421220906941011 -5.6213761466261145
58 -1.2926697609091236 1.856533525582504 1.207287756023061
59 0.827292664745161 1.778917778373026 2.646822531005154
60 2.9436875876542867 0.5051080871675057 5.595578413523489
61 4.446666447340811 1.3576068756408084 1.9594124487558393
62 0.433190476591189 -2.158905770374258 1.4446476462324676
63 -6.020800837057304 2.0512316166717732 -0.41744417144381596
64 -6.060911358393766 6.265117910418301 5.860994948639236
