ITEM: TIMESTEP
10000
ITEM: NUMBER OF ATOMS
64
ITEM: BOX BOUNDS xy xz yz pp pp pp
0.0000000000000000e+00 1.0479999999999203e+01 0.0000000000000000e+00
0.0000000000000000e+00 9.0759462316602288e+00 0.0000000000000000e+00
0.0000000000000000e+00 9.9000000000000004e+00 0.0000000000000000e+00
ITEM: ATOMS id type x y z
1 1 1.5652 5.45469 3.73523
2 1 1.13074 5.08661 8.51538
3 1 0.192232 7.87999 3.6401
4 1 0.0588059 7.31725 8.57336
5 1 6.81031 0.832091 3.56104
6 1 6.64539 0.644112 8.56346
7 1 5.41365 3.16641 3.61937
8 1 5.13543 2.75232 8.48235
9 1 1.36461 1.38451 3.43863
10 1 1.21978 0.615177 8.53664
11 1 0.0418765 3.53351 3.8028
12 1 10.4797 2.79369 8.8617
13 1 3.95806 0.864705 3.65136
14 1 3.87224 0.760883 9.00424
15 1 2.73154 3.24645 4.05159
16 1 2.63353 2.88283 8.86291
17 1 6.48377 5.35571 3.41737
18 1 6.30141 4.95539 8.56771
19 1 5.40331 7.70071 3.78288
20 1 5.25961 7.53701 8.60174
21 1 9.17054 5.52932 3.79027
22 1 8.94929 5.01347 8.6892
23 1 8.06697 7.76649 3.9666
24 1 7.90379 7.31138 8.7673
25 1 3.90151 5.68414 3.3878
26 1 3.98171 5.20515 8.76259
27 1 2.80724 7.78054 3.92746
28 1 2.61001 7.55324 8.80745
29 1 9.36168 1.10193 3.52116
30 1 9.21877 0.721069 8.72406
31 1 7.92555 3.13234 4.04644
32 1 7.60775 3.03635 8.44263
33 1 5.18215 1.51409 1.33239
34 1 5.12671 1.3225 5.97512
35 1 3.8372 3.48958 1.2772
36 1 4.02728 3.73123 6.15396
37 1 2.67777 6.06628 1.06653
38 1 2.78501 6.12547 6.47248
39 1 1.18648 8.18849 1.22066
40 1 1.07804 8.11996 6.04202
41 1 10.2099 1.63249 1.09683
42 1 0.0694296 1.4387 6.00182
43 1 2.33392 1.40092 1.11328
44 1 2.66334 1.54016 6.50082
45 1 1.14082 3.82645 1.20273
46 1 1.55175 3.84596 6.28597
47 1 0.151905 5.75666 1.48235
48 1 0.0353149 6.00822 6.01503
49 1 8.9245 3.65906 1.74965
50 1 9.33872 3.83794 6.65266
51 1 7.7298 5.95302 0.956853
52 1 8.01061 6.0175 5.91542
53 1 6.42168 8.16279 1.00581
54 1 6.64133 8.44118 6.26127
55 1 9.0585 8.29059 1.28743
56 1 9.13776 8.25 6.50361
57 1 7.70478 1.47114 0.732746
58 1 8.05346 1.50192 5.92411
59 1 6.55077 3.54224 1.14447
60 1 6.47369 3.82177 6.11525
61 1 5.16735 5.90409 1.43435
62 1 5.39708 6.1848 6.13055
63 1 3.77 8.41238 1.13522
64 1 3.75694 8.37318 6.50858
