LAMMPS (29 Sep 2021 - Update 1)
Reading data file ...
  triclinic box = (0.0000000 0.0000000 0.0000000) to (10.520000 9.1105872 10.500000) with tilt (0.0000000 0.0000000 0.0000000)
  1 by 1 by 1 MPI processor grid
  reading atoms ...
  64 atoms
  read_data CPU = 0.001 seconds
Neighbor list info ...
  update every 1 steps, delay 0 steps, check yes
  max neighbors/atom: 2000, page size: 100000
  master list distance cutoff = 7
  ghost atom cutoff = 7
  binsize = 3.5, bins = 4 3 3
  1 neighbor lists, perpetual/occasional/extra = 1 0 0
  (1) pair mlip, perpetual
      attributes: full, newton on
      pair build: full/bin/atomonly
      stencil: full/bin/3d
      bin: standard
Setting up Verlet run ...
  Unit style    : metal
  Current step  : 0
  Time step     : 0.001
Per MPI rank memory allocation (min/avg/max) = 3.090 | 3.090 | 3.090 Mbytes
Step Time Temp Volume Press 
       0            0         1380    1006.3555   -5493.9744 
       1        0.001    1379.0801    1006.3555   -5461.0159 
       2        0.002    1376.3257    1006.3555   -5362.2749 
       3        0.003    1371.7518    1006.3555   -5198.1267 
       4        0.004    1365.3804    1006.3555   -4969.1867 
       5        0.005    1357.2415    1006.3555    -4676.626 
       6        0.006    1347.3732    1006.3555   -4325.7319 
       7        0.007    1335.8225    1006.3555   -3919.9494 
       8        0.008    1322.6439    1006.3555   -3462.2643 
       9        0.009    1307.8975    1006.3555   -2955.7167 
      10         0.01    1291.6476    1006.3555   -2408.3813 
Loop time of 0.21584 on 1 procs for 10 steps with 64 atoms

Performance: 4.003 ns/day, 5.996 hours/ns, 46.331 timesteps/s
96.2% CPU use with 1 MPI tasks x no OpenMP threads

MPI task timing breakdown:
Section |  min time  |  avg time  |  max time  |%varavg| %total
---------------------------------------------------------------
Pair    | 0.21572    | 0.21572    | 0.21572    |   0.0 | 99.94
Neigh   | 0          | 0          | 0          |   0.0 |  0.00
Comm    | 3.3936e-05 | 3.3936e-05 | 3.3936e-05 |   0.0 |  0.02
Output  | 4.3034e-05 | 4.3034e-05 | 4.3034e-05 |   0.0 |  0.02
Modify  | 3.0222e-05 | 3.0222e-05 | 3.0222e-05 |   0.0 |  0.01
Other   |            | 1.153e-05  |            |       |  0.01

Nlocal:        64.0000 ave          64 max          64 min
Histogram: 1 0 0 0 0 0 0 0 0 0
Nghost:        886.000 ave         886 max         886 min
Histogram: 1 0 0 0 0 0 0 0 0 0
Neighs:         0.00000 ave           0 max           0 min
Histogram: 1 0 0 0 0 0 0 0 0 0
FullNghs:      6272.00 ave        6272 max        6272 min
Histogram: 1 0 0 0 0 0 0 0 0 0

Total # of neighbors = 6272
Ave neighs/atom = 98.000000
Neighbor list builds = 0
Dangerous builds = 0
Setting up Verlet run ...
  Unit style    : metal
  Current step  : 10
  Time step     : 0.001
Per MPI rank memory allocation (min/avg/max) = 3.090 | 3.090 | 3.090 Mbytes
Step Time Temp Volume Press 
      10         0.01    1291.6476    1006.3555   -2408.3813 
      11        0.011    1273.9631    1006.3555   -1819.7067 
      12        0.012    1254.9183    1006.3555   -1191.9986 
      13        0.013    1234.5922    1006.3555   -531.59122 
      14        0.014    1213.0697    1006.3555    164.00673 
      15        0.015    1190.4425    1006.3555    893.98262 
      16        0.016    1166.8075    1006.3555    1651.6677 
      17        0.017    1142.2652    1006.3555    2429.7444 
      18        0.018    1116.9206    1006.3555    3231.6475 
      19        0.019    1090.8835    1006.3555    4054.2445 
      20         0.02    1064.2671    1006.3555    4897.1915 
      21        0.021    1037.1876    1006.3555    5757.0264 
      22        0.022    1009.7627    1006.3555    6628.2579 
      23        0.023    982.11111    1006.3555    7508.7948 
      24        0.024    954.35221    1006.3555    8394.3258 
      25        0.025    926.60465    1006.3555    9279.2592 
      26        0.026    898.98577    1006.3555    10160.969 
      27        0.027    871.61113    1006.3555    11038.498 
      28        0.028    844.59351    1006.3555    11906.992 
      29        0.029    818.04179    1006.3555    12763.857 
      30         0.03    792.06027    1006.3555    13604.612 
      31        0.031    766.74786    1006.3555    14427.237 
      32        0.032    742.19732    1006.3555    15227.387 
      33        0.033    718.49473    1006.3555    16004.511 
      34        0.034    695.71894    1006.3555    16755.508 
      35        0.035    673.94079    1006.3555    17477.405 
      36        0.036    653.22274    1006.3555    18167.945 
      37        0.037    633.61863    1006.3555    18826.274 
      38        0.038    615.17351    1006.3555    19450.694 
      39        0.039    597.92329    1006.3555    20039.496 
      40         0.04    581.89479    1006.3555     20591.92 
      41        0.041    567.10609    1006.3555    21106.315 
      42        0.042    553.56671    1006.3555    21582.573 
      43        0.043    541.27761    1006.3555    22018.665 
      44        0.044     530.2317    1006.3555    22414.682 
      45        0.045    520.41447    1006.3555    22771.666 
      46        0.046    511.80458    1006.3555    23090.736 
      47        0.047    504.37436    1006.3555    23372.214 
      48        0.048    498.09053    1006.3555    23616.665 
      49        0.049    492.91477    1006.3555    23825.022 
      50         0.05    488.80433    1006.3555    23997.978 
      51        0.051    485.71276    1006.3555    24137.022 
      52        0.052    483.59034    1006.3555    24242.886 
      53        0.053    482.38474    1006.3555    24316.859 
      54        0.054    482.04189    1006.3555    24361.484 
      55        0.055     482.5065    1006.3555    24378.371 
      56        0.056    483.72241    1006.3555    24368.918 
      57        0.057     485.6331    1006.3555    24335.141 
      58        0.058    488.18173    1006.3555    24276.674 
      59        0.059    491.31147    1006.3555    24194.865 
      60         0.06    494.96582    1006.3555    24091.241 
      61        0.061    499.08897    1006.3555    23968.857 
      62        0.062    503.62634    1006.3555    23831.244 
      63        0.063     508.5247    1006.3555     23679.92 
      64        0.064    513.73215    1006.3555    23516.875 
      65        0.065    519.19808    1006.3555    23343.087 
      66        0.066    524.87314    1006.3555    23159.838 
      67        0.067    530.70945    1006.3555    22968.725 
      68        0.068    536.66053    1006.3555    22771.714 
      69        0.069    542.68141    1006.3555    22571.619 
      70         0.07     548.7287    1006.3555    22369.438 
      71        0.071    554.76022    1006.3555    22165.041 
      72        0.072    560.73535    1006.3555    21961.158 
      73        0.073    566.61538    1006.3555    21759.832 
      74        0.074    572.36329    1006.3555    21562.377 
      75        0.075    577.94361    1006.3555    21368.088 
      76        0.076    583.32247    1006.3555    21178.867 
      77        0.077    588.46784    1006.3555     20995.78 
      78        0.078    593.34953    1006.3555    20819.861 
      79        0.079    597.93968    1006.3555    20653.095 
      80         0.08    602.21299    1006.3555    20497.136 
      81        0.081    606.14645    1006.3555    20353.497 
      82        0.082    609.71927    1006.3555    20222.113 
      83        0.083    612.91295    1006.3555    20103.344 
      84        0.084    615.71101    1006.3555    19995.172 
      85        0.085     618.0994    1006.3555    19901.365 
      86        0.086    620.06717    1006.3555    19821.569 
      87        0.087    621.60611    1006.3555    19755.057 
      88        0.088    622.71086    1006.3555    19703.517 
      89        0.089    623.37877    1006.3555    19666.231 
      90         0.09    623.60963    1006.3555    19642.155 
      91        0.091    623.40605    1006.3555    19633.807 
      92        0.092    622.77361    1006.3555    19640.355 
      93        0.093    621.72044    1006.3555    19662.725 
      94        0.094    620.25726    1006.3555    19700.398 
      95        0.095    618.39736    1006.3555    19753.029 
      96        0.096    616.15677    1006.3555     19818.05 
      97        0.097    613.55362    1006.3555    19896.834 
      98        0.098     610.6077    1006.3555    19987.613 
      99        0.099    607.34078    1006.3555    20090.712 
     100          0.1    603.77648    1006.3555    20203.666 
Loop time of 1.79119 on 1 procs for 90 steps with 64 atoms

Performance: 4.341 ns/day, 5.528 hours/ns, 50.246 timesteps/s
100.0% CPU use with 1 MPI tasks x no OpenMP threads

MPI task timing breakdown:
Section |  min time  |  avg time  |  max time  |%varavg| %total
---------------------------------------------------------------
Pair    | 1.7901     | 1.7901     | 1.7901     |   0.0 | 99.94
Neigh   | 0.00019001 | 0.00019001 | 0.00019001 |   0.0 |  0.01
Comm    | 0.00029364 | 0.00029364 | 0.00029364 |   0.0 |  0.02
Output  | 0.00036388 | 0.00036388 | 0.00036388 |   0.0 |  0.02
Modify  | 0.00016949 | 0.00016949 | 0.00016949 |   0.0 |  0.01
Other   |            | 7.681e-05  |            |       |  0.00

Nlocal:        64.0000 ave          64 max          64 min
Histogram: 1 0 0 0 0 0 0 0 0 0
Nghost:        877.000 ave         877 max         877 min
Histogram: 1 0 0 0 0 0 0 0 0 0
Neighs:         0.00000 ave           0 max           0 min
Histogram: 1 0 0 0 0 0 0 0 0 0
FullNghs:      5836.00 ave        5836 max        5836 min
Histogram: 1 0 0 0 0 0 0 0 0 0

Total # of neighbors = 5836
Ave neighs/atom = 91.187500
Neighbor list builds = 1
Dangerous builds = 0
Setting up Verlet run ...
  Unit style    : metal
  Current step  : 100
  Time step     : 0.001
Per MPI rank memory allocation (min/avg/max) = 3.090 | 3.090 | 3.090 Mbytes
Step Time Temp Volume Press 
     100          0.1    603.77648    1006.3555    20203.666 
     110         0.11    557.98481    1006.3555    21745.924 
     120         0.12     516.1446    1006.3555    23227.279 
     130         0.13    507.30692    1006.3555    23693.216 
     140         0.14    543.00427    1006.3555    22822.551 
     150         0.15    606.63794    1006.3555    21213.193 
     160         0.16    664.06779    1006.3555    19933.349 
     170         0.17    687.24467    1006.3555    19778.147 
     180         0.18    668.92027    1006.3555    20852.561 
     190         0.19    626.19826    1006.3555    22514.893 
     200          0.2    590.86932    1006.3555    23876.905 
     210         0.21    588.90122    1006.3555    24133.413 
     220         0.22    625.81621    1006.3555    23189.075 
     230         0.23    685.44572    1006.3555    21673.022 
     240         0.24    734.78743    1006.3555    20622.344 
     250         0.25    745.83189    1006.3555    20760.561 
     260         0.26    721.43764    1006.3555    22000.589 
     270         0.27    685.68761    1006.3555    23716.551 
     280         0.28    656.69113    1006.3555    25209.345 
     290         0.29    639.61593    1006.3555    26090.972 
     300          0.3    638.29384    1006.3555    26267.846 
     310         0.31    662.14728    1006.3555    25435.871 
     320         0.32    711.72532    1006.3555     23669.21 
     330         0.33    765.31895    1006.3555    21676.904 
     340         0.34    796.26653    1006.3555    20295.535 
     350         0.35    801.95697    1006.3555    19634.847 
     360         0.36    804.05223    1006.3555    19214.231 
     370         0.37    817.49984    1006.3555    18522.103 
     380         0.38    830.09152    1006.3555    17851.796 
     390         0.39    821.59887    1006.3555    17860.496 
     400          0.4    789.07784    1006.3555     18609.34 
     410         0.41    744.25384    1006.3555    19817.993 
     420         0.42    701.00545    1006.3555    20924.248 
     430         0.43    672.52071    1006.3555    21584.235 
     440         0.44    664.55927    1006.3555    21622.794 
     450         0.45     664.2441    1006.3555    21442.391 
     460         0.46    651.00961    1006.3555    21630.669 
     470         0.47    628.66766    1006.3555    22017.382 
     480         0.48    619.49682    1006.3555    22110.892 
     490         0.49    626.30206    1006.3555    21786.093 
     500          0.5    637.60957    1006.3555    21386.567 
     510         0.51    648.71794    1006.3555    21153.502 
     520         0.52    658.36152    1006.3555    21096.549 
     530         0.53    662.64116    1006.3555    21281.186 
     540         0.54    659.54999    1006.3555    21561.921 
     550         0.55    656.49675    1006.3555    21698.955 
     560         0.56    666.01404    1006.3555    21351.818 
     570         0.57    690.79681    1006.3555    20442.409 
     580         0.58    719.32408    1006.3555    19270.664 
     590         0.59    739.09842    1006.3555    18316.522 
     600          0.6    745.59407    1006.3555    17826.541 
     610         0.61    738.92981    1006.3555    17896.961 
     620         0.62    722.50102    1006.3555    18281.521 
     630         0.63    703.96923    1006.3555    18847.731 
     640         0.64    690.05768    1006.3555    19429.547 
     650         0.65    681.82211    1006.3555    19863.057 
     660         0.66    678.93246    1006.3555    19995.663 
     670         0.67    682.54086    1006.3555    19807.047 
     680         0.68    689.87406    1006.3555    19507.062 
     690         0.69    691.67637    1006.3555    19388.206 
     700          0.7     678.1092    1006.3555     19860.27 
     710         0.71    648.14158    1006.3555    20913.749 
     720         0.72    612.08317    1006.3555    22159.658 
     730         0.73    584.83676    1006.3555    23107.335 
     740         0.74    577.50424    1006.3555    23403.477 
     750         0.75    592.54159    1006.3555     22914.86 
     760         0.76    625.09753    1006.3555    21938.657 
     770         0.77    666.00359    1006.3555    20942.235 
     780         0.78    703.83523    1006.3555    20430.047 
     790         0.79     729.4558    1006.3555    20738.811 
     800          0.8    740.43073    1006.3555    21860.081 
     810         0.81    739.43828    1006.3555    23551.923 
     820         0.82     732.8933    1006.3555    25375.732 
     830         0.83    730.63724    1006.3555    26916.187 
     840         0.84    736.68006    1006.3555    27868.081 
     850         0.85    750.79623    1006.3555    28224.611 
     860         0.86    777.77833    1006.3555    27989.456 
     870         0.87     815.2353    1006.3555    27324.419 
     880         0.88    850.09662    1006.3555    26615.529 
     890         0.89    869.53831    1006.3555    26288.037 
     900          0.9    860.22909    1006.3555     26802.05 
     910         0.91    820.71119    1006.3555    28025.546 
     920         0.92    776.12252    1006.3555    29302.885 
     930         0.93    758.89394    1006.3555    29693.941 
     940         0.94    775.83911    1006.3555    29028.307 
     950         0.95    802.97251    1006.3555    27820.685 
     960         0.96    811.87453    1006.3555    26859.506 
     970         0.97      796.578    1006.3555    26366.548 
     980         0.98    772.36536    1006.3555    26030.881 
     990         0.99    752.26377    1006.3555    25589.267 
    1000            1    736.36811    1006.3555    24970.398 
Loop time of 17.8598 on 1 procs for 900 steps with 64 atoms

Performance: 4.354 ns/day, 5.512 hours/ns, 50.393 timesteps/s
100.0% CPU use with 1 MPI tasks x no OpenMP threads

MPI task timing breakdown:
Section |  min time  |  avg time  |  max time  |%varavg| %total
---------------------------------------------------------------
Pair    | 17.852     | 17.852     | 17.852     |   0.0 | 99.95
Neigh   | 0.0028457  | 0.0028457  | 0.0028457  |   0.0 |  0.02
Comm    | 0.0028521  | 0.0028521  | 0.0028521  |   0.0 |  0.02
Output  | 0.00039914 | 0.00039914 | 0.00039914 |   0.0 |  0.00
Modify  | 0.0014821  | 0.0014821  | 0.0014821  |   0.0 |  0.01
Other   |            | 0.0006564  |            |       |  0.00

Nlocal:        64.0000 ave          64 max          64 min
Histogram: 1 0 0 0 0 0 0 0 0 0
Nghost:        876.000 ave         876 max         876 min
Histogram: 1 0 0 0 0 0 0 0 0 0
Neighs:         0.00000 ave           0 max           0 min
Histogram: 1 0 0 0 0 0 0 0 0 0
FullNghs:      5868.00 ave        5868 max        5868 min
Histogram: 1 0 0 0 0 0 0 0 0 0

Total # of neighbors = 5868
Ave neighs/atom = 91.687500
Neighbor list builds = 15
Dangerous builds = 0
Setting up Verlet run ...
  Unit style    : metal
  Current step  : 1000
  Time step     : 0.001
Per MPI rank memory allocation (min/avg/max) = 3.090 | 3.090 | 3.090 Mbytes
Step Time Temp Volume Press 
    1000            1    736.36811    1006.3555    24970.398 
    1100          1.1    732.06334    1006.3555    17807.054 
    1200          1.2    635.48485    1006.3555    18482.816 
    1300          1.3    792.57405    1006.3555    16522.056 
    1400          1.4    682.32021    1006.3555    22756.267 
    1500          1.5     683.7257    1006.3555    24936.133 
    1600          1.6    793.44262    1006.3555    22850.787 
    1700          1.7    817.15802    1006.3555    23949.244 
    1800          1.8    822.79244    1006.3555    18571.631 
    1900          1.9    668.52561    1006.3555    19412.031 
    2000            2    708.67438    1006.3555    17144.574 
    2100          2.1    700.93747    1006.3555     18696.09 
    2200          2.2    635.84274    1006.3555    23742.595 
    2300          2.3    787.92613    1006.3555     22029.41 
    2400          2.4    674.34096    1006.3555    29488.194 
    2500          2.5    861.70347    1006.3555    20394.521 
    2600          2.6    719.64264    1006.3555    22871.549 
    2700          2.7    638.31091    1006.3555    19275.868 
    2800          2.8    644.49443    1006.3555    17133.293 
    2900          2.9    619.37619    1006.3555    20645.223 
    3000            3    673.87579    1006.3555    22186.442 
    3100          3.1     691.4693    1006.3555    22345.479 
    3200          3.2    659.18598    1006.3555    23127.602 
    3300          3.3    705.72512    1006.3555    22845.366 
    3400          3.4     636.7823    1006.3555    21792.986 
    3500          3.5    640.46462    1006.3555    18320.048 
    3600          3.6    714.36244    1006.3555     19998.19 
    3700          3.7    806.74363    1006.3555    21178.477 
    3800          3.8    761.55034    1006.3555    19770.262 
    3900          3.9    572.78252    1006.3555    16614.917 
    4000            4    599.06719    1006.3555    15573.806 
    4100          4.1    654.48968    1006.3555    16311.093 
    4200          4.2    731.60812    1006.3555    17872.712 
    4300          4.3    790.36527    1006.3555    20006.153 
    4400          4.4    683.85859    1006.3555    28518.326 
    4500          4.5    744.63246    1006.3555    25477.553 
    4600          4.6    685.01061    1006.3555    23230.891 
    4700          4.7    644.00778    1006.3555    21189.437 
    4800          4.8    721.45692    1006.3555    15620.651 
    4900          4.9    689.56612    1006.3555    18640.963 
    5000            5    817.72413    1006.3555     20896.94 
    5100          5.1    688.86825    1006.3555    26884.649 
    5200          5.2    657.57454    1006.3555     25493.63 
    5300          5.3    772.14586    1006.3555    14372.278 
    5400          5.4    627.72455    1006.3555    18002.568 
    5500          5.5    633.65702    1006.3555    20116.934 
    5600          5.6    629.10658    1006.3555    26296.196 
    5700          5.7    826.53833    1006.3555    20615.065 
    5800          5.8     621.1457    1006.3555     26322.25 
    5900          5.9    661.44097    1006.3555    24682.798 
    6000            6    632.67292    1006.3555    16787.293 
    6100          6.1    650.61964    1006.3555    12852.784 
    6200          6.2     630.2271    1006.3555    18296.764 
    6300          6.3    683.33493    1006.3555     20971.27 
    6400          6.4    791.96662    1006.3555    21115.486 
    6500          6.5    708.15342    1006.3555    22465.423 
    6600          6.6     735.1976    1006.3555    16877.067 
    6700          6.7    491.61701    1006.3555    21369.149 
    6800          6.8    698.58966    1006.3555    16026.086 
    6900          6.9    766.42658    1006.3555    19769.679 
    7000            7    711.62959    1006.3555    23125.862 
    7100          7.1    646.42524    1006.3555    22922.141 
    7200          7.2    615.19008    1006.3555     20652.98 
    7300          7.3    598.33236    1006.3555    18513.752 
    7400          7.4    701.86134    1006.3555      19824.3 
    7500          7.5    773.83944    1006.3555    21640.525 
    7600          7.6      639.076    1006.3555    23147.349 
    7700          7.7    675.16086    1006.3555    17013.949 
    7800          7.8    503.80437    1006.3555    17676.579 
    7900          7.9    639.54423    1006.3555    15740.931 
    8000            8    637.25723    1006.3555    22364.787 
    8100          8.1    678.99766    1006.3555    21348.856 
    8200          8.2    664.26711    1006.3555    21202.756 
    8300          8.3    626.19336    1006.3555    25870.999 
    8400          8.4    883.81383    1006.3555    21616.568 
    8500          8.5    707.25882    1006.3555    24160.761 
    8600          8.6    680.35397    1006.3555    24025.156 
    8700          8.7    751.15154    1006.3555    21944.356 
    8800          8.8    685.63244    1006.3555    22611.732 
    8900          8.9    583.04811    1006.3555    20335.328 
    9000            9    774.79452    1006.3555    13127.278 
    9100          9.1    747.33455    1006.3555    16958.534 
    9200          9.2    709.46263    1006.3555    22286.215 
    9300          9.3    812.51418    1006.3555    24818.232 
    9400          9.4    713.25109    1006.3555     26479.65 
    9500          9.5    612.17062    1006.3555    23735.615 
    9600          9.6    694.42569    1006.3555    17023.749 
    9700          9.7    660.35935    1006.3555    19857.616 
    9800          9.8     691.4731    1006.3555    25648.861 
    9900          9.9    772.77552    1006.3555    25937.857 
   10000           10    706.17954    1006.3555    21277.962 
Loop time of 189.305 on 1 procs for 9000 steps with 64 atoms

Performance: 4.108 ns/day, 5.843 hours/ns, 47.542 timesteps/s
100.0% CPU use with 1 MPI tasks x no OpenMP threads

MPI task timing breakdown:
Section |  min time  |  avg time  |  max time  |%varavg| %total
---------------------------------------------------------------
Pair    | 189.22     | 189.22     | 189.22     |   0.0 | 99.95
Neigh   | 0.030814   | 0.030814   | 0.030814   |   0.0 |  0.02
Comm    | 0.03139    | 0.03139    | 0.03139    |   0.0 |  0.02
Output  | 0.00054018 | 0.00054018 | 0.00054018 |   0.0 |  0.00
Modify  | 0.015539   | 0.015539   | 0.015539   |   0.0 |  0.01
Other   |            | 0.006984   |            |       |  0.00

Nlocal:        64.0000 ave          64 max          64 min
Histogram: 1 0 0 0 0 0 0 0 0 0
Nghost:        866.000 ave         866 max         866 min
Histogram: 1 0 0 0 0 0 0 0 0 0
Neighs:         0.00000 ave           0 max           0 min
Histogram: 1 0 0 0 0 0 0 0 0 0
FullNghs:      5852.00 ave        5852 max        5852 min
Histogram: 1 0 0 0 0 0 0 0 0 0

Total # of neighbors = 5852
Ave neighs/atom = 91.437500
Neighbor list builds = 158
Dangerous builds = 0
System init for write_data ...
Total wall time: 0:03:29
