LAMMPS data file via write_data, version 29 Sep 2021, timestep = 10000

64 atoms
1 atom types

0 10.519999999999747 xlo xhi
0 9.110587247812074 ylo yhi
0 10.5 zlo zhi
0 0 0 xy xz yz

Masses

1 65.38

Atoms # atomic

1 1 1.075110255727734 5.145418584350842 4.369370882724352 0 0 0
2 1 1.3948293126949673 5.713267635213152 8.852023907673539 0 0 0
3 1 10.403506491658723 7.68044163382613 3.6177984135402004 -1 0 0
4 1 10.272851393128493 7.6660183087804254 8.63811371688301 -1 0 0
5 1 6.574710851948229 0.6937489307089729 3.4324420837842573 0 0 0
6 1 7.031069563610287 0.8060977230015974 9.629273480105404 0 0 0
7 1 5.311839915029263 2.9057984899410423 4.088524333052125 0 0 0
8 1 5.348061608816364 2.8151443234702604 8.967440935438933 0 0 0
9 1 1.414060802136334 0.7386403120890939 4.091200955694485 0 0 0
10 1 1.0432096984631563 0.6343164173131511 9.81788922597649 0 0 0
11 1 10.356837759379047 3.00265964646981 3.8154257586351386 -1 0 0
12 1 10.288184493118779 3.1663632777837805 9.506886261242615 -1 0 0
13 1 4.141802342590675 0.8335947302705796 3.8996655123246904 0 0 0
14 1 3.8332384197254465 0.6949543526491238 9.022414796800266 0 0 0
15 1 2.681369751178776 2.887963675812218 4.332437765305866 0 0 0
16 1 2.350698388649196 3.061313477130385 9.415363494243413 0 0 0
17 1 6.546573869219576 5.112983548502198 4.0452549970835925 0 0 0
18 1 6.398322442209784 5.320679626760782 8.836626695933356 0 0 0
19 1 5.400718036970707 7.620293438184918 3.734528886920072 0 0 0
20 1 5.363192999982804 7.637643325896263 9.158552219677276 0 0 0
21 1 9.073241194490532 5.288491599096263 3.998592831375002 0 0 0
22 1 9.220063485120876 5.412826902691227 9.256038787584943 0 0 0
23 1 7.900671759883762 7.4724749006560165 3.644249975767782 0 0 0
24 1 7.775619225025184 7.675133870446471 8.34042830648975 0 0 0
25 1 3.9740645487413615 5.34692196331897 4.267717685110119 0 0 0
26 1 3.903456724680246 5.314463690036528 9.651842971023463 0 0 0
27 1 2.793192003178465 7.465541209919258 4.2390053935398315 0 0 0
28 1 2.668766635974106 7.80953617070138 9.194652396978944 0 0 0
29 1 9.340752224831412 0.7125102085088044 3.7721571039565958 0 0 0
30 1 9.286974455686313 1.0341863157998001 8.382284264298354 0 0 0
31 1 7.792673593433298 2.926855710142535 3.760732198324422 0 0 0
32 1 7.661580036473865 3.3140098280311356 9.479602179926774 0 0 0
33 1 5.467256209403865 1.4969758071479085 1.1673246492413352 0 0 0
34 1 5.179909974364709 1.3725791575297248 6.84015209633381 0 0 0
35 1 4.053607486935575 3.513575845293009 1.6545685072491532 0 0 0
36 1 3.8445540470844377 3.632068753635397 6.589348907109826 0 0 0
37 1 2.639739522302426 5.871598774368237 1.466810163437874 0 0 0
38 1 2.450795726557375 6.18024584459361 6.589660831150467 0 0 0
39 1 1.4799113270155522 8.486784686970102 1.45534071629244 0 0 0
40 1 1.3515344228861923 8.32362387526144 6.9683029816430775 0 0 0
41 1 0.07900134853368834 1.664791029500777 1.7701360896520213 0 0 0
42 1 0.16005154278387385 1.69449216859407 6.15849190227374 0 0 0
43 1 2.726197854722055 1.449833427242929 1.2306999127230673 0 0 0
44 1 2.289023290647623 1.516097357696094 7.110954061078202 0 0 0
45 1 1.532447260275116 3.6753816941000625 1.8238027717252552 0 0 0
46 1 1.194867776000121 3.841019035323052 6.742261381106064 0 0 0
47 1 0.18351977829685248 6.167967949212466 1.0186217988991355 0 0 0
48 1 10.258653227536831 5.99160324101148 6.705254288363379 -1 0 0
49 1 9.46347796738222 4.058567460991727 1.4455989915327767 0 0 0
50 1 9.115055163190394 3.619748863687079 7.46214693540535 0 0 0
51 1 8.161719042370073 6.129844208185587 1.2242448437007845 0 0 0
52 1 7.95967872414615 5.991582491980433 6.272067426735725 0 0 0
53 1 6.520616672080995 8.269745158275374 1.0906694018389143 0 0 0
54 1 6.40801376653952 8.390021688647748 5.838086612595463 0 0 0
55 1 9.33808160017042 8.435494510822712 0.9266856680385631 0 0 0
56 1 9.229953807710366 8.225383498271755 6.123624981677858 0 0 0
57 1 8.018824278404505 1.6886808463946972 1.4101048402421206 0 0 0
58 1 7.738907526778148 1.5864894382957238 6.154299053978812 0 0 0
59 1 6.54420341282615 3.8034672886936542 1.1947410208226001 0 0 0
60 1 6.797544986628997 3.6894394665123666 6.442419376008733 0 0 0
61 1 5.3736764841905424 5.916218013039072 1.6124648060428626 0 0 0
62 1 5.1802429099409055 6.268594035081984 6.45756817931522 0 0 0
63 1 3.9261265544271655 8.202220781792452 1.3854986832266247 0 0 0
64 1 3.8715620241050774 8.474361704334644 6.409509703139901 0 0 0

Velocities

1 5.718923620484622 -6.596195846597792 5.66547152642675
2 0.3689326615409842 4.541087922920613 -3.880412554880569
3 0.6535387017775655 -3.3253726542641995 -3.5566033190321913
4 -0.2327485179040283 -1.24769649391744 -5.170633250087368
5 -2.9875927479378572 0.5676857228021894 -0.6738207052144446
6 -0.9316259668166208 1.0780740198116687 -4.668169084974763
7 -0.035687699685795486 1.4879170195282634 0.375993251434958
8 0.882730082745503 -0.42290407304922845 4.114130025460135
9 -2.842103234667959 -5.770569401937326 0.31384637858999964
10 -3.2684956904585527 -3.66168100306375 -5.075474880647543
11 -1.3443591888538435 -0.4189534467306972 -2.233019739940053
12 2.702486444403347 2.3264834887856796 -1.5768976726150918
13 2.2177369813478403 2.177352117131903 -2.438072810075439
14 2.61185357899271 -6.039524704508741 0.8398626549439097
15 5.606068707453145 2.490886530045337 -0.8207172664132638
16 -1.9821033004563058 -4.154191864605488 5.322109998979219
17 -4.029859161082698 -1.1847492999370814 -4.65545487047084
18 3.7186341294179823 -1.7109548418184908 0.7045246080824401
19 -0.3507055967500317 0.37460445799548375 -3.909963225526874
20 -1.4804053507693125 -0.9890374111698332 3.8654823161729266
21 0.42252796486057526 3.703578016449114 -2.358361576894314
22 1.085043934767941 0.9477735924776156 -0.2058137970596457
23 -0.309741713712061 -0.02047205441973567 -0.364559384573742
24 -0.19784101215785196 -4.567995479295445 4.413104984574109
25 -2.334266415491812 4.785578137627027 5.079377923392953
26 0.6411918484445885 4.251512102260675 2.1080150583182453
27 3.025164222482816 -2.678898678447683 -1.4580170173467442
28 -1.4438636770265894 1.6346583865701905 1.4402814587022363
29 2.811344085461528 0.25799580969526087 -1.2021490765501381
30 1.1670562080540212 3.266746142094955 -3.0447529535650686
31 -2.7431460476810647 -1.621811854368118 -4.367785993485939
32 -0.1017542574886395 2.816633422769567 5.146174850344849
33 1.5318253965918296 -2.891427692002052 -4.014486664725389
34 0.6359029544413638 4.631268419503517 2.1093827300674333
35 0.2148799694986645 1.7965572102723057 0.13905873037829886
36 -1.1213252603258124 -4.01993746990767 -2.6935822231947224
37 -7.61513486852961 -4.0206738319697966 4.702995037798638
38 5.446879445336077 1.4284704920303581 -3.0018177595351307
39 2.747563537299645 -0.7340800537514868 -0.22332001887120403
40 -1.1854900573492608 -3.272697166115363 -2.021913348932893
41 -3.8044124239426744 1.7062444851394998 -1.23826117601585
42 -1.6928889463280936 -2.1817886570631 -1.427479632508278
43 3.355307283084173 4.067975629946466 -2.7980272884130115
44 -3.683914201144632 5.15777659237555 -3.090493376008156
45 -1.9721320544701437 6.47238775974056 1.4257262749542847
46 -0.8146706658381424 -3.480680871264779 -3.635612711987397
47 -0.017986739493194074 1.844621494463998 -0.5913087699724335
48 -2.199807866349776 3.38307828725886 -0.7111293000686008
49 0.00432154396988862 -3.3288991641666197 4.27271613796945
50 -0.31347344838813385 0.9017669024326099 6.332065382559304
51 -1.6117407940850408 2.1325981185121665 2.260437444657281
52 -3.382981039761513 -5.168100072373393 -1.5121105650850875
53 4.159367693730974 4.150298857615836 1.3703880329201132
54 -1.496265895748334 -1.9935755786089304 -0.7150589464718476
55 3.0252319964105197 -1.3512440163802488 3.037448739643701
56 -2.149141460097942 -0.4468932716583225 4.241923391312773
57 -2.1291040482173864 -3.6441804630861947 -0.14830019062923258
58 1.8644010053393991 1.7278482521463103 7.0865794793428405
59 4.4799972823146685 -1.855357461490901 -0.3789484223692232
60 1.329123354342123 -2.871680783330094 2.5711794389971083
61 1.500287380924263 1.3201284756988498 -0.2443660827898134
62 0.5449244615308856 -0.9744610139625771 -1.3314452128408787
63 -2.564189678509382 5.71653957094198 1.7264805576321955
64 -0.10228744952893343 3.5005592382183144 0.7735844561169222
