ITEM: TIMESTEP
10000
ITEM: NUMBER OF ATOMS
64
ITEM: BOX BOUNDS xy xz yz pp pp pp
0.0000000000000000e+00 1.0519999999999747e+01 0.0000000000000000e+00
0.0000000000000000e+00 9.1105872478120737e+00 0.0000000000000000e+00
0.0000000000000000e+00 1.0500000000000000e+01 0.0000000000000000e+00
ITEM: ATOMS id type x y z
1 1 1.07511 5.14542 4.36937
2 1 1.39483 5.71327 8.85202
3 1 10.4035 7.68044 3.6178
4 1 10.2729 7.66602 8.63811
5 1 6.57471 0.693749 3.43244
6 1 7.03107 0.806098 9.62927
7 1 5.31184 2.9058 4.08852
8 1 5.34806 2.81514 8.96744
9 1 1.41406 0.73864 4.0912
10 1 1.04321 0.634316 9.81789
11 1 10.3568 3.00266 3.81543
12 1 10.2882 3.16636 9.50689
13 1 4.1418 0.833595 3.89967
14 1 3.83324 0.694954 9.02241
15 1 2.68137 2.88796 4.33244
16 1 2.3507 3.06131 9.41536
17 1 6.54657 5.11298 4.04525
18 1 6.39832 5.32068 8.83663
19 1 5.40072 7.62029 3.73453
20 1 5.36319 7.63764 9.15855
21 1 9.07324 5.28849 3.99859
22 1 9.22006 5.41283 9.25604
23 1 7.90067 7.47247 3.64425
24 1 7.77562 7.67513 8.34043
25 1 3.97406 5.34692 4.26772
26 1 3.90346 5.31446 9.65184
27 1 2.79319 7.46554 4.23901
28 1 2.66877 7.80954 9.19465
29 1 9.34075 0.71251 3.77216
30 1 9.28697 1.03419 8.38228
31 1 7.79267 2.92686 3.76073
32 1 7.66158 3.31401 9.4796
33 1 5.46726 1.49698 1.16732
34 1 5.17991 1.37258 6.84015
35 1 4.05361 3.51358 1.65457
36 1 3.84455 3.63207 6.58935
37 1 2.63974 5.8716 1.46681
38 1 2.4508 6.18025 6.58966
39 1 1.47991 8.48678 1.45534
40 1 1.35153 8.32362 6.9683
41 1 0.0790013 1.66479 1.77014
42 1 0.160052 1.69449 6.15849
43 1 2.7262 1.44983 1.2307
44 1 2.28902 1.5161 7.11095
45 1 1.53245 3.67538 1.8238
46 1 1.19487 3.84102 6.74226
47 1 0.18352 6.16797 1.01862
48 1 10.2587 5.9916 6.70525
49 1 9.46348 4.05857 1.4456
50 1 9.11506 3.61975 7.46215
51 1 8.16172 6.12984 1.22424
52 1 7.95968 5.99158 6.27207
53 1 6.52062 8.26975 1.09067
54 1 6.40801 8.39002 5.83809
55 1 9.33808 8.43549 0.926686
56 1 9.22995 8.22538 6.12362
57 1 8.01882 1.68868 1.4101
58 1 7.73891 1.58649 6.1543
59 1 6.5442 3.80347 1.19474
60 1 6.79754 3.68944 6.44242
61 1 5.37368 5.91622 1.61246
62 1 5.18024 6.26859 6.45757
63 1 3.92613 8.20222 1.3855
64 1 3.87156 8.47436 6.40951
