LAMMPS (29 Sep 2021 - Update 1)
Reading data file ...
  triclinic box = (0.0000000 0.0000000 0.0000000) to (10.640000 9.2145103 10.380000) with tilt (0.0000000 0.0000000 0.0000000)
  1 by 1 by 1 MPI processor grid
  reading atoms ...
  64 atoms
  read_data CPU = 0.001 seconds
Neighbor list info ...
  update every 1 steps, delay 0 steps, check yes
  max neighbors/atom: 2000, page size: 100000
  master list distance cutoff = 7
  ghost atom cutoff = 7
  binsize = 3.5, bins = 4 3 3
  1 neighbor lists, perpetual/occasional/extra = 1 0 0
  (1) pair mlip, perpetual
      attributes: full, newton on
      pair build: full/bin/atomonly
      stencil: full/bin/3d
      bin: standard
Setting up Verlet run ...
  Unit style    : metal
  Current step  : 0
  Time step     : 0.001
Per MPI rank memory allocation (min/avg/max) = 3.089 | 3.089 | 3.089 Mbytes
Step Time Temp Volume Press 
       0            0         1380      1017.68   -19027.953 
       1        0.001    1379.1964      1017.68   -18999.006 
       2        0.002    1376.7859      1017.68     -18912.2 
       3        0.003     1372.772      1017.68   -18767.724 
       4        0.004    1367.1634      1017.68   -18565.929 
       5        0.005     1359.974      1017.68   -18307.333 
       6        0.006    1351.2233      1017.68   -17992.625 
       7        0.007    1340.9361      1017.68   -17622.668 
       8        0.008    1329.1429      1017.68   -17199.725 
       9        0.009    1315.8809      1017.68   -16726.823 
      10         0.01    1301.1936      1017.68   -16206.953 
Loop time of 0.240138 on 1 procs for 10 steps with 64 atoms

Performance: 3.598 ns/day, 6.670 hours/ns, 41.643 timesteps/s
90.1% CPU use with 1 MPI tasks x no OpenMP threads

MPI task timing breakdown:
Section |  min time  |  avg time  |  max time  |%varavg| %total
---------------------------------------------------------------
Pair    | 0.24002    | 0.24002    | 0.24002    |   0.0 | 99.95
Neigh   | 0          | 0          | 0          |   0.0 |  0.00
Comm    | 3.6972e-05 | 3.6972e-05 | 3.6972e-05 |   0.0 |  0.02
Output  | 4.1612e-05 | 4.1612e-05 | 4.1612e-05 |   0.0 |  0.02
Modify  | 2.8107e-05 | 2.8107e-05 | 2.8107e-05 |   0.0 |  0.01
Other   |            | 1.17e-05   |            |       |  0.00

Nlocal:        64.0000 ave          64 max          64 min
Histogram: 1 0 0 0 0 0 0 0 0 0
Nghost:        886.000 ave         886 max         886 min
Histogram: 1 0 0 0 0 0 0 0 0 0
Neighs:         0.00000 ave           0 max           0 min
Histogram: 1 0 0 0 0 0 0 0 0 0
FullNghs:      5504.00 ave        5504 max        5504 min
Histogram: 1 0 0 0 0 0 0 0 0 0

Total # of neighbors = 5504
Ave neighs/atom = 86.000000
Neighbor list builds = 0
Dangerous builds = 0
Setting up Verlet run ...
  Unit style    : metal
  Current step  : 10
  Time step     : 0.001
Per MPI rank memory allocation (min/avg/max) = 3.089 | 3.089 | 3.089 Mbytes
Step Time Temp Volume Press 
      10         0.01    1301.1936      1017.68   -16206.953 
      11        0.011    1285.1294      1017.68   -15642.033 
      12        0.012    1267.7419      1017.68    -15033.02 
      13        0.013    1249.0903      1017.68   -14382.756 
      14        0.014    1229.2384      1017.68   -13694.484 
      15        0.015    1208.2543      1017.68   -12971.171 
      16        0.016    1186.2107      1017.68   -12216.204 
      17        0.017    1163.1855      1017.68   -11432.204 
      18        0.018    1139.2619      1017.68   -10620.563 
      19        0.019    1114.5279      1017.68    -9785.766 
      20         0.02    1089.0757      1017.68   -8928.4261 
      21        0.021    1063.0021      1017.68   -8049.5512 
      22        0.022    1036.4074      1017.68   -7153.3473 
      23        0.023    1009.3954      1017.68   -6242.1063 
      24        0.024    982.07241      1017.68   -5322.1691 
      25        0.025     954.5464      1017.68   -4393.2289 
      26        0.026    926.92701      1017.68   -3457.9998 
      27        0.027    899.32387      1017.68   -2524.5902 
      28        0.028    871.84594      1017.68   -1593.1187 
      29        0.029    844.60132      1017.68   -665.83341 
      30         0.03    817.69579      1017.68    252.78227 
      31        0.031    791.23191      1017.68    1161.4826 
      32        0.032     765.3084      1017.68    2057.4419 
      33        0.033    740.01911      1017.68     2937.009 
      34        0.034    715.45218      1017.68    3797.8923 
      35        0.035    691.68903      1017.68    4633.2905 
      36        0.036    668.80392      1017.68    5442.8415 
      37        0.037    646.86372      1017.68    6226.0789 
      38        0.038    625.92725      1017.68    6981.7037 
      39        0.039    606.04486      1017.68    7707.8648 
      40         0.04    587.25789      1017.68    8401.9426 
      41        0.041     569.5986      1017.68    9063.4824 
      42        0.042    553.09016      1017.68    9690.3484 
      43        0.043    537.74673      1017.68    10281.979 
      44        0.044    523.57379      1017.68    10838.856 
      45        0.045    510.56849      1017.68    11360.606 
      46        0.046    498.71985      1017.68    11845.281 
      47        0.047    488.00935      1017.68    12294.472 
      48        0.048    478.41196      1017.68    12707.025 
      49        0.049    469.89643      1017.68    13085.565 
      50         0.05    462.42553      1017.68    13430.516 
      51        0.051    455.95715      1017.68    13742.478 
      52        0.052    450.44505      1017.68    14022.175 
      53        0.053    445.83968      1017.68    14270.531 
      54        0.054    442.08893      1017.68    14489.888 
      55        0.055    439.13892      1017.68    14681.851 
      56        0.056    436.93459      1017.68    14847.325 
      57        0.057    435.42035      1017.68    14987.736 
      58        0.058     434.5407      1017.68    15104.406 
      59        0.059    434.24069      1017.68    15198.715 
      60         0.06    434.46631      1017.68    15272.328 
      61        0.061    435.16498      1017.68    15325.459 
      62        0.062    436.28603      1017.68    15361.771 
      63        0.063    437.78089      1017.68    15382.018 
      64        0.064    439.60328      1017.68     15388.74 
      65        0.065    441.70947      1017.68    15383.025 
      66        0.066    444.05805      1017.68    15365.132 
      67        0.067    446.61032      1017.68    15337.637 
      68        0.068     449.3304      1017.68    15301.771 
      69        0.069    452.18506      1017.68     15258.42 
      70         0.07    455.14363      1017.68    15209.232 
      71        0.071    458.17809      1017.68    15154.416 
      72        0.072    461.26292      1017.68    15095.905 
      73        0.073    464.37499      1017.68    15034.257 
      74        0.074    467.49337      1017.68    14968.579 
      75        0.075    470.59907      1017.68    14898.988 
      76        0.076    473.67545      1017.68    14828.464 
      77        0.077    476.70826      1017.68    14755.802 
      78        0.078    479.68528      1017.68    14681.668 
      79        0.079    482.59615      1017.68    14607.552 
      80         0.08    485.43265      1017.68    14534.255 
      81        0.081    488.18852      1017.68    14461.215 
      82        0.082    490.85926      1017.68    14389.063 
      83        0.083    493.44224      1017.68    14319.003 
      84        0.084    495.93673      1017.68    14251.032 
      85        0.085    498.34371      1017.68    14185.379 
      86        0.086    500.66575      1017.68    14122.458 
      87        0.087    502.90694      1017.68    14060.597 
      88        0.088    505.07297      1017.68    14000.764 
      89        0.089    507.17114      1017.68    13942.972 
      90         0.09    509.21003      1017.68    13885.655 
      91        0.091    511.19947      1017.68    13829.347 
      92        0.092    513.15054      1017.68    13773.991 
      93        0.093    515.07554      1017.68    13717.918 
      94        0.094    516.98765      1017.68    13662.314 
      95        0.095    518.90042      1017.68    13607.247 
      96        0.096    520.82789      1017.68    13552.137 
      97        0.097     522.7843      1017.68    13496.318 
      98        0.098    524.78396      1017.68    13439.807 
      99        0.099    526.84103      1017.68    13382.358 
     100          0.1    528.96925      1017.68    13323.631 
Loop time of 1.91728 on 1 procs for 90 steps with 64 atoms

Performance: 4.056 ns/day, 5.918 hours/ns, 46.941 timesteps/s
100.0% CPU use with 1 MPI tasks x no OpenMP threads

MPI task timing breakdown:
Section |  min time  |  avg time  |  max time  |%varavg| %total
---------------------------------------------------------------
Pair    | 1.9162     | 1.9162     | 1.9162     |   0.0 | 99.94
Neigh   | 0.00021794 | 0.00021794 | 0.00021794 |   0.0 |  0.01
Comm    | 0.00031834 | 0.00031834 | 0.00031834 |   0.0 |  0.02
Output  | 0.00033281 | 0.00033281 | 0.00033281 |   0.0 |  0.02
Modify  | 0.00017122 | 0.00017122 | 0.00017122 |   0.0 |  0.01
Other   |            | 7.644e-05  |            |       |  0.00

Nlocal:        64.0000 ave          64 max          64 min
Histogram: 1 0 0 0 0 0 0 0 0 0
Nghost:        880.000 ave         880 max         880 min
Histogram: 1 0 0 0 0 0 0 0 0 0
Neighs:         0.00000 ave           0 max           0 min
Histogram: 1 0 0 0 0 0 0 0 0 0
FullNghs:      5654.00 ave        5654 max        5654 min
Histogram: 1 0 0 0 0 0 0 0 0 0

Total # of neighbors = 5654
Ave neighs/atom = 88.343750
Neighbor list builds = 1
Dangerous builds = 0
Setting up Verlet run ...
  Unit style    : metal
  Current step  : 100
  Time step     : 0.001
Per MPI rank memory allocation (min/avg/max) = 3.089 | 3.089 | 3.089 Mbytes
Step Time Temp Volume Press 
     100          0.1    528.96925      1017.68    13323.631 
     110         0.11    556.44028      1017.68    12571.506 
     120         0.12    595.68667      1017.68    11534.682 
     130         0.13    634.25991      1017.68    10571.806 
     140         0.14    655.67575      1017.68     10085.56 
     150         0.15    654.95825      1017.68     10239.91 
     160         0.16    639.82418      1017.68    10883.077 
     170         0.17    622.89721      1017.68    11719.888 
     180         0.18    613.95866      1017.68    12314.846 
     190         0.19    617.35039      1017.68    12558.774 
     200          0.2    632.21292      1017.68    12468.309 
     210         0.21     650.2232      1017.68    12260.722 
     220         0.22    658.52479      1017.68    12361.192 
     230         0.23    652.68715      1017.68    12826.913 
     240         0.24    645.86642      1017.68    13288.423 
     250         0.25    656.12656      1017.68    13330.078 
     260         0.26    682.90134      1017.68    12983.847 
     270         0.27    707.19185      1017.68    12762.815 
     280         0.28    717.58638      1017.68    12896.862 
     290         0.29    723.75127      1017.68    13095.723 
     300          0.3    738.21255      1017.68    12968.719 
     310         0.31    757.71501      1017.68     12489.48 
     320         0.32    770.72941      1017.68    12134.226 
     330         0.33    769.84387      1017.68    12239.642 
     340         0.34    750.72066      1017.68    12950.195 
     350         0.35     712.6727      1017.68    14215.388 
     360         0.36     667.5797      1017.68    15675.275 
     370         0.37    641.18082      1017.68    16558.864 
     380         0.38    655.09206      1017.68    16243.505 
     390         0.39     704.1103      1017.68    14889.166 
     400          0.4    756.45126      1017.68    13263.877 
     410         0.41    780.20657      1017.68    12370.474 
     420         0.42    766.18891      1017.68    12532.729 
     430         0.43    728.76391      1017.68    13363.719 
     440         0.44    691.20598      1017.68    14277.111 
     450         0.45     669.5013      1017.68        14765 
     460         0.46    667.73919      1017.68    14648.348 
     470         0.47    683.94026      1017.68     13901.48 
     480         0.48    709.94327      1017.68    12759.029 
     490         0.49    730.20234      1017.68    11681.802 
     500          0.5    736.54806      1017.68    10915.083 
     510         0.51    737.85493      1017.68     10203.78 
     520         0.52    740.31907      1017.68    9367.8562 
     530         0.53    734.38553      1017.68    8591.7066 
     540         0.54    713.39309      1017.68    8149.5132 
     550         0.55    685.07065      1017.68    8004.2485 
     560         0.56    659.96733      1017.68    7848.6148 
     570         0.57    639.52744      1017.68    7690.4777 
     580         0.58    620.37633      1017.68    7628.6143 
     590         0.59    604.52511      1017.68    7570.7395 
     600          0.6    599.98463      1017.68    7241.6694 
     610         0.61    610.98504      1017.68    6564.5521 
     620         0.62    630.05708      1017.68     5683.513 
     630         0.63    642.48069      1017.68    5014.9332 
     640         0.64    638.79564      1017.68      4790.85 
     650         0.65    622.39837      1017.68    4930.0597 
     660         0.66    607.11822      1017.68    5105.3309 
     670         0.67    605.21486      1017.68    5108.0288 
     680         0.68    615.32931      1017.68    4862.4486 
     690         0.69    626.80316      1017.68    4655.7336 
     700          0.7     634.1841      1017.68    4639.4574 
     710         0.71    634.44021      1017.68    4946.9875 
     720         0.72    618.43465      1017.68    5807.6398 
     730         0.73    583.82843      1017.68    7216.8659 
     740         0.74    549.96578      1017.68    8518.4092 
     750         0.75    546.31433      1017.68    8827.9643 
     760         0.76    585.55764      1017.68    7899.9119 
     770         0.77    649.93187      1017.68    6384.6565 
     780         0.78    707.89058      1017.68    5042.0482 
     790         0.79    740.45214      1017.68    4434.4335 
     800          0.8    748.45822      1017.68    4686.0008 
     810         0.81     740.7306      1017.68    5532.2498 
     820         0.82    720.18419      1017.68    6903.9931 
     830         0.83     683.9472      1017.68     8794.569 
     840         0.84    640.05352      1017.68    10820.947 
     850         0.85    611.15996      1017.68    12375.587 
     860         0.86    608.64253      1017.68    13057.978 
     870         0.87     619.1427      1017.68    13212.357 
     880         0.88    625.83658      1017.68    13301.354 
     890         0.89     627.6584      1017.68    13417.144 
     900          0.9    635.77462      1017.68     13392.67 
     910         0.91    657.94612      1017.68    13070.512 
     920         0.92    688.85519      1017.68    12608.573 
     930         0.93    714.18693      1017.68    12402.153 
     940         0.94    722.71982      1017.68    12673.103 
     950         0.95    715.21533      1017.68    13332.297 
     960         0.96    705.28493      1017.68    13914.584 
     970         0.97    709.47381      1017.68    13941.493 
     980         0.98    731.51127      1017.68    13357.345 
     990         0.99    756.60543      1017.68    12609.371 
    1000            1    764.76375      1017.68    12309.252 
Loop time of 19.3379 on 1 procs for 900 steps with 64 atoms

Performance: 4.021 ns/day, 5.968 hours/ns, 46.541 timesteps/s
100.0% CPU use with 1 MPI tasks x no OpenMP threads

MPI task timing breakdown:
Section |  min time  |  avg time  |  max time  |%varavg| %total
---------------------------------------------------------------
Pair    | 19.329     | 19.329     | 19.329     |   0.0 | 99.95
Neigh   | 0.0032811  | 0.0032811  | 0.0032811  |   0.0 |  0.02
Comm    | 0.0032586  | 0.0032586  | 0.0032586  |   0.0 |  0.02
Output  | 0.00042136 | 0.00042136 | 0.00042136 |   0.0 |  0.00
Modify  | 0.0017319  | 0.0017319  | 0.0017319  |   0.0 |  0.01
Other   |            | 0.0007135  |            |       |  0.00

Nlocal:        64.0000 ave          64 max          64 min
Histogram: 1 0 0 0 0 0 0 0 0 0
Nghost:        865.000 ave         865 max         865 min
Histogram: 1 0 0 0 0 0 0 0 0 0
Neighs:         0.00000 ave           0 max           0 min
Histogram: 1 0 0 0 0 0 0 0 0 0
FullNghs:      5672.00 ave        5672 max        5672 min
Histogram: 1 0 0 0 0 0 0 0 0 0

Total # of neighbors = 5672
Ave neighs/atom = 88.625000
Neighbor list builds = 15
Dangerous builds = 0
Setting up Verlet run ...
  Unit style    : metal
  Current step  : 1000
  Time step     : 0.001
Per MPI rank memory allocation (min/avg/max) = 3.089 | 3.089 | 3.089 Mbytes
Step Time Temp Volume Press 
    1000            1    764.76375      1017.68    12309.252 
    1100          1.1    722.59288      1017.68    10841.172 
    1200          1.2    672.69179      1017.68    10718.505 
    1300          1.3    787.52962      1017.68    5897.2582 
    1400          1.4    663.15313      1017.68    7770.9377 
    1500          1.5    622.37843      1017.68    12437.329 
    1600          1.6    748.86382      1017.68     13829.42 
    1700          1.7    710.21162      1017.68    12118.835 
    1800          1.8    580.28448      1017.68    12576.843 
    1900          1.9    616.25115      1017.68    8245.9639 
    2000            2    580.90834      1017.68    4631.8764 
    2100          2.1    671.82788      1017.68     4755.254 
    2200          2.2    731.71029      1017.68    11163.035 
    2300          2.3    745.07557      1017.68    13541.637 
    2400          2.4    769.80786      1017.68    8112.7853 
    2500          2.5    636.28165      1017.68    8116.0231 
    2600          2.6    674.99426      1017.68    7333.4115 
    2700          2.7    745.90243      1017.68    7140.9595 
    2800          2.8    664.37095      1017.68    11266.402 
    2900          2.9    762.92686      1017.68    14377.587 
    3000            3    876.89687      1017.68    15031.675 
    3100          3.1     729.3208      1017.68    17614.422 
    3200          3.2    788.08462      1017.68    10868.786 
    3300          3.3    722.20607      1017.68    10956.547 
    3400          3.4     653.1768      1017.68    8887.9608 
    3500          3.5    628.54398      1017.68    7749.1272 
    3600          3.6    685.75543      1017.68    8716.3941 
    3700          3.7    755.61792      1017.68    12157.389 
    3800          3.8    659.25432      1017.68    17123.661 
    3900          3.9    705.81005      1017.68    11370.483 
    4000            4    641.38104      1017.68    7065.2551 
    4100          4.1    597.66249      1017.68    7269.4815 
    4200          4.2    622.61153      1017.68    10774.455 
    4300          4.3    663.09585      1017.68    15025.752 
    4400          4.4    754.51738      1017.68    13401.832 
    4500          4.5    658.27972      1017.68    14247.152 
    4600          4.6    609.09646      1017.68    15031.154 
    4700          4.7     738.6821      1017.68     11141.57 
    4800          4.8    736.20582      1017.68    12236.033 
    4900          4.9    692.43585      1017.68    9932.0925 
    5000            5    580.63058      1017.68    7308.6397 
    5100          5.1    654.89576      1017.68    5570.8767 
    5200          5.2    755.36025      1017.68     8693.999 
    5300          5.3    688.42455      1017.68    13437.174 
    5400          5.4    835.18865      1017.68    7939.0078 
    5500          5.5    685.06222      1017.68     13304.89 
    5600          5.6    708.11082      1017.68    7431.2716 
    5700          5.7    563.28915      1017.68    5538.1971 
    5800          5.8    598.30761      1017.68    3657.6612 
    5900          5.9    611.85691      1017.68    8028.8274 
    6000            6    661.68737      1017.68    11597.399 
    6100          6.1    689.80638      1017.68    12838.409 
    6200          6.2    748.88643      1017.68    16027.411 
    6300          6.3    725.48671      1017.68    19952.683 
    6400          6.4    665.90875      1017.68    21355.717 
    6500          6.5    647.64085      1017.68    15509.898 
    6600          6.6    666.67437      1017.68    10571.673 
    6700          6.7    597.84561      1017.68    10608.084 
    6800          6.8    616.11439      1017.68    8190.6964 
    6900          6.9     683.0212      1017.68    6718.8295 
    7000            7    701.26498      1017.68    10295.315 
    7100          7.1    674.61657      1017.68    18867.294 
    7200          7.2    814.25768      1017.68    16241.602 
    7300          7.3    638.13362      1017.68    18090.489 
    7400          7.4     620.6311      1017.68    15642.127 
    7500          7.5    668.59562      1017.68     13947.73 
    7600          7.6    782.15205      1017.68    13177.371 
    7700          7.7     510.0633      1017.68    17519.142 
    7800          7.8      707.853      1017.68    4200.4812 
    7900          7.9    676.89325      1017.68     6583.411 
    8000            8    709.37085      1017.68    9982.2045 
    8100          8.1    732.79886      1017.68    14711.675 
    8200          8.2    772.25559      1017.68    14417.496 
    8300          8.3    625.11275      1017.68    14569.008 
    8400          8.4    583.40076      1017.68    11086.214 
    8500          8.5     764.5179      1017.68    5853.6504 
    8600          8.6    623.49925      1017.68    12947.905 
    8700          8.7    739.74187      1017.68     14918.62 
    8800          8.8    853.85413      1017.68    17285.179 
    8900          8.9    807.93799      1017.68    19972.781 
    9000            9    691.00561      1017.68    11267.026 
    9100          9.1    700.09614      1017.68    6152.2541 
    9200          9.2    685.25364      1017.68    7549.6059 
    9300          9.3    742.82455      1017.68    11168.166 
    9400          9.4    741.42294      1017.68    14294.563 
    9500          9.5    727.01132      1017.68    14644.076 
    9600          9.6     677.5276      1017.68    15672.615 
    9700          9.7    665.29536      1017.68    8936.5982 
    9800          9.8    672.50814      1017.68    7394.0736 
    9900          9.9    706.29828      1017.68    9596.0322 
   10000           10    768.32326      1017.68    8972.0449 
Loop time of 185.197 on 1 procs for 9000 steps with 64 atoms

Performance: 4.199 ns/day, 5.716 hours/ns, 48.597 timesteps/s
100.0% CPU use with 1 MPI tasks x no OpenMP threads

MPI task timing breakdown:
Section |  min time  |  avg time  |  max time  |%varavg| %total
---------------------------------------------------------------
Pair    | 185.11     | 185.11     | 185.11     |   0.0 | 99.95
Neigh   | 0.034832   | 0.034832   | 0.034832   |   0.0 |  0.02
Comm    | 0.031055   | 0.031055   | 0.031055   |   0.0 |  0.02
Output  | 0.0005365  | 0.0005365  | 0.0005365  |   0.0 |  0.00
Modify  | 0.016232   | 0.016232   | 0.016232   |   0.0 |  0.01
Other   |            | 0.007061   |            |       |  0.00

Nlocal:        64.0000 ave          64 max          64 min
Histogram: 1 0 0 0 0 0 0 0 0 0
Nghost:        886.000 ave         886 max         886 min
Histogram: 1 0 0 0 0 0 0 0 0 0
Neighs:         0.00000 ave           0 max           0 min
Histogram: 1 0 0 0 0 0 0 0 0 0
FullNghs:      5678.00 ave        5678 max        5678 min
Histogram: 1 0 0 0 0 0 0 0 0 0

Total # of neighbors = 5678
Ave neighs/atom = 88.718750
Neighbor list builds = 167
Dangerous builds = 0
System init for write_data ...
Total wall time: 0:03:26
