ITEM: TIMESTEP
10000
ITEM: NUMBER OF ATOMS
64
ITEM: BOX BOUNDS xy xz yz pp pp pp
0.0000000000000000e+00 1.0640000000001363e+01 0.0000000000000000e+00
0.0000000000000000e+00 9.2145102962676049e+00 0.0000000000000000e+00
0.0000000000000000e+00 1.0380000000000001e+01 0.0000000000000000e+00
ITEM: ATOMS id type x y z
1 1 1.2778 5.27634 3.80803
2 1 1.53677 5.4698 9.52161
3 1 0.107716 7.55357 3.76777
4 1 10.5592 7.52558 8.67962
5 1 6.81954 0.609477 4.20236
6 1 6.46119 0.80583 9.28657
7 1 5.2576 3.14313 3.85919
8 1 5.26211 3.11656 9.14916
9 1 1.46389 1.12504 3.96885
10 1 1.32662 0.925251 8.96987
11 1 10.2811 2.93948 3.80327
12 1 0.269224 3.07687 8.91763
13 1 4.05532 0.767066 3.76324
14 1 3.81347 0.93219 9.06501
15 1 2.64786 3.20358 3.66078
16 1 2.84408 3.1543 9.08855
17 1 6.65719 5.34297 4.11311
18 1 6.60108 5.4345 9.33991
19 1 5.44065 7.66575 4.14719
20 1 5.22781 7.70329 9.3703
21 1 9.11391 5.32712 3.72367
22 1 9.01011 5.15139 8.53818
23 1 8.03695 7.54552 3.75496
24 1 8.07722 7.78635 8.9378
25 1 4.06795 5.31055 3.50164
26 1 4.0768 5.53899 8.84299
27 1 2.73681 7.82261 4.15882
28 1 2.62325 7.60579 9.00229
29 1 9.56922 0.591789 3.82631
30 1 9.38432 0.779419 9.42167
31 1 7.83202 2.96068 4.54563
32 1 7.60835 2.83276 9.30141
33 1 5.18346 1.79927 1.39789
34 1 5.20522 1.63653 5.99344
35 1 3.71233 3.9337 1.07756
36 1 3.90767 3.91101 6.13219
37 1 2.75351 6.28647 1.54089
38 1 2.7197 6.2253 6.63672
39 1 1.3677 8.64888 0.689608
40 1 1.55749 8.39278 6.46397
41 1 10.6364 1.4843 1.32538
42 1 10.4805 1.38529 6.25725
43 1 2.61346 1.56338 1.73308
44 1 2.78927 1.50681 6.69895
45 1 1.24485 3.76491 1.54556
46 1 1.35811 3.84047 6.35122
47 1 0.00820739 6.05042 1.13529
48 1 0.0104286 6.02039 6.10123
49 1 9.03485 3.98337 0.992197
50 1 9.54811 3.76302 6.39722
51 1 7.89835 6.50594 1.18906
52 1 7.96223 6.0608 6.22274
53 1 6.83198 8.80388 1.59186
54 1 6.77293 8.43054 6.5214
55 1 9.47345 8.22027 0.9344
56 1 9.38749 8.15469 6.62435
57 1 8.0432 1.50273 1.36419
58 1 8.05021 1.59563 6.71232
59 1 6.77806 3.68859 1.9095
60 1 6.32066 3.85678 6.88143
61 1 5.35884 5.98113 1.01054
62 1 5.2356 6.16095 6.38447
63 1 4.08552 8.2708 1.38866
64 1 4.10297 8.41175 6.91805
