 # Something
 64 atoms
 1 atom types
 0   10.640000000001363      xlo xhi 
 0   9.2145102962676049      ylo yhi 
 0   10.380000000000001      zlo zhi 
   0.0000000000000000        0.0000000000000000        0.0000000000000000      xy xz yz
 Atoms
 
           1           1   1.3300000000001704        5.3751310061561028        3.8925000000000001     
           2           1   1.3300000000001704        5.3751310061561028        9.0825000000000014     
           3           1   0.0000000000000000        7.6787585802230041        3.8925000000000001     
           4           1   0.0000000000000000        7.6787585802230041        9.0825000000000014     
           5           1   6.6500000000008521       0.76787585802230041        3.8925000000000001     
           6           1   6.6500000000008521       0.76787585802230041        9.0825000000000014     
           7           1   5.3200000000006815        3.0715034320892016        3.8925000000000001     
           8           1   5.3200000000006815        3.0715034320892016        9.0825000000000014     
           9           1   1.3300000000001704       0.76787585802230041        3.8925000000000001     
          10           1   1.3300000000001704       0.76787585802230041        9.0825000000000014     
          11           1   0.0000000000000000        3.0715034320892016        3.8925000000000001     
          12           1   0.0000000000000000        3.0715034320892016        9.0825000000000014     
          13           1   3.9900000000005109       0.76787585802230041        3.8925000000000001     
          14           1   3.9900000000005109       0.76787585802230041        9.0825000000000014     
          15           1   2.6600000000003408        3.0715034320892016        3.8925000000000001     
          16           1   2.6600000000003408        3.0715034320892016        9.0825000000000014     
          17           1   6.6500000000008521        5.3751310061561028        3.8925000000000001     
          18           1   6.6500000000008521        5.3751310061561028        9.0825000000000014     
          19           1   5.3200000000006815        7.6787585802230041        3.8925000000000001     
          20           1   5.3200000000006815        7.6787585802230041        9.0825000000000014     
          21           1   9.3100000000011924        5.3751310061561028        3.8925000000000001     
          22           1   9.3100000000011924        5.3751310061561028        9.0825000000000014     
          23           1   7.9800000000010218        7.6787585802230041        3.8925000000000001     
          24           1   7.9800000000010218        7.6787585802230041        9.0825000000000014     
          25           1   3.9900000000005109        5.3751310061561028        3.8925000000000001     
          26           1   3.9900000000005109        5.3751310061561028        9.0825000000000014     
          27           1   2.6600000000003408        7.6787585802230041        3.8925000000000001     
          28           1   2.6600000000003408        7.6787585802230041        9.0825000000000014     
          29           1   9.3100000000011924       0.76787585802230041        3.8925000000000001     
          30           1   9.3100000000011924       0.76787585802230041        9.0825000000000014     
          31           1   7.9800000000010218        3.0715034320892016        3.8925000000000001     
          32           1   7.9800000000010218        3.0715034320892016        9.0825000000000014     
          33           1   5.3200000000006815        1.5357517160446013        1.2975000000000001     
          34           1   5.3200000000006815        1.5357517160446013        6.4875000000000007     
          35           1   3.9900000000005109        3.8393792901115020        1.2975000000000001     
          36           1   3.9900000000005109        3.8393792901115020        6.4875000000000007     
          37           1   2.6600000000003408        6.1430068641784041        1.2975000000000001     
          38           1   2.6600000000003408        6.1430068641784041        6.4875000000000007     
          39           1   1.3300000000001704        8.4466344382453045        1.2975000000000001     
          40           1   1.3300000000001704        8.4466344382453045        6.4875000000000007     
          41           1   0.0000000000000000        1.5357517160446013        1.2975000000000001     
          42           1   0.0000000000000000        1.5357517160446013        6.4875000000000007     
          43           1   2.6600000000003408        1.5357517160446013        1.2975000000000001     
          44           1   2.6600000000003408        1.5357517160446013        6.4875000000000007     
          45           1   1.3300000000001704        3.8393792901115020        1.2975000000000001     
          46           1   1.3300000000001704        3.8393792901115020        6.4875000000000007     
          47           1   0.0000000000000000        6.1430068641784041        1.2975000000000001     
          48           1   0.0000000000000000        6.1430068641784041        6.4875000000000007     
          49           1   9.3100000000011924        3.8393792901115020        1.2975000000000001     
          50           1   9.3100000000011924        3.8393792901115020        6.4875000000000007     
          51           1   7.9800000000010218        6.1430068641784041        1.2975000000000001     
          52           1   7.9800000000010218        6.1430068641784041        6.4875000000000007     
          53           1   6.6500000000008521        8.4466344382453045        1.2975000000000001     
          54           1   6.6500000000008521        8.4466344382453045        6.4875000000000007     
          55           1   9.3100000000011924        8.4466344382453045        1.2975000000000001     
          56           1   9.3100000000011924        8.4466344382453045        6.4875000000000007     
          57           1   7.9800000000010218        1.5357517160446013        1.2975000000000001     
          58           1   7.9800000000010218        1.5357517160446013        6.4875000000000007     
          59           1   6.6500000000008521        3.8393792901115020        1.2975000000000001     
          60           1   6.6500000000008521        3.8393792901115020        6.4875000000000007     
          61           1   5.3200000000006815        6.1430068641784041        1.2975000000000001     
          62           1   5.3200000000006815        6.1430068641784041        6.4875000000000007     
          63           1   3.9900000000005109        8.4466344382453045        1.2975000000000001     
          64           1   3.9900000000005109        8.4466344382453045        6.4875000000000007     
