 # Something
 108 atoms
 1 atom types
 0   12.299999999999999      xlo xhi 
 0   12.299999999999999      ylo yhi 
 0   12.299999999999999      zlo zhi 
   0.0000000000000000        0.0000000000000000        0.0000000000000000      xy xz yz
 Atoms
 
           1           1   6.1499999999999995        10.250000000000000        0.0000000000000000     
           2           1   4.0999999999999996        10.250000000000000        10.250000000000000     
           3           1   2.0500000000000003        10.250000000000000        8.2000000000000011     
           4           1   0.0000000000000000        10.250000000000000        6.1499999999999995     
           5           1   8.2000000000000011        8.2000000000000011        0.0000000000000000     
           6           1   6.1499999999999995        8.2000000000000011        10.250000000000000     
           7           1   4.0999999999999996        8.2000000000000011        8.2000000000000011     
           8           1   4.0999999999999996        6.1499999999999995        2.0500000000000003     
           9           1   10.250000000000000        4.0999999999999996        6.1499999999999995     
          10           1   8.2000000000000011        4.0999999999999996        4.0999999999999996     
          11           1   6.1499999999999995        4.0999999999999996        2.0500000000000003     
          12           1   10.250000000000000        2.0500000000000003        4.0999999999999996     
          13           1   8.2000000000000011        2.0500000000000003        2.0500000000000003     
          14           1   10.250000000000000        0.0000000000000000        2.0500000000000003     
          15           1   2.0500000000000003        6.1499999999999995        4.0999999999999996     
          16           1   0.0000000000000000        6.1499999999999995        2.0500000000000003     
          17           1   10.250000000000000        4.0999999999999996        10.250000000000000     
          18           1   8.2000000000000011        4.0999999999999996        8.2000000000000011     
          19           1   6.1499999999999995        4.0999999999999996        6.1499999999999995     
          20           1   4.0999999999999996        4.0999999999999996        4.0999999999999996     
          21           1   2.0500000000000003        4.0999999999999996        2.0500000000000003     
          22           1   4.0999999999999996        6.1499999999999995        6.1499999999999995     
          23           1   6.1499999999999995        6.1499999999999995        8.2000000000000011     
          24           1   8.2000000000000011        6.1499999999999995        10.250000000000000     
          25           1   10.250000000000000        6.1499999999999995        0.0000000000000000     
          26           1   0.0000000000000000        8.2000000000000011        4.0999999999999996     
          27           1   2.0500000000000003        8.2000000000000011        6.1499999999999995     
          28           1   10.250000000000000        8.2000000000000011        6.1499999999999995     
          29           1   8.2000000000000011        8.2000000000000011        4.0999999999999996     
          30           1   6.1499999999999995        8.2000000000000011        2.0500000000000003     
          31           1   10.250000000000000        6.1499999999999995        4.0999999999999996     
          32           1   8.2000000000000011        6.1499999999999995        2.0500000000000003     
          33           1   10.250000000000000        4.0999999999999996        2.0500000000000003     
          34           1   10.250000000000000        10.250000000000000        0.0000000000000000     
          35           1   10.250000000000000        10.250000000000000        4.0999999999999996     
          36           1   8.2000000000000011        10.250000000000000        2.0500000000000003     
          37           1   10.250000000000000        8.2000000000000011        2.0500000000000003     
          38           1   10.250000000000000        10.250000000000000        8.2000000000000011     
          39           1   8.2000000000000011        10.250000000000000        6.1499999999999995     
          40           1   6.1499999999999995        10.250000000000000        4.0999999999999996     
          41           1   4.0999999999999996        10.250000000000000        2.0500000000000003     
          42           1   8.2000000000000011        8.2000000000000011        8.2000000000000011     
          43           1   6.1499999999999995        8.2000000000000011        6.1499999999999995     
          44           1   4.0999999999999996        8.2000000000000011        4.0999999999999996     
          45           1   2.0500000000000003        8.2000000000000011        2.0500000000000003     
          46           1   10.250000000000000        6.1499999999999995        8.2000000000000011     
          47           1   8.2000000000000011        6.1499999999999995        6.1499999999999995     
          48           1   6.1499999999999995        6.1499999999999995        4.0999999999999996     
          49           1   10.250000000000000        8.2000000000000011        10.250000000000000     
          50           1   0.0000000000000000        10.250000000000000        2.0500000000000003     
          51           1   2.0500000000000003        10.250000000000000        4.0999999999999996     
          52           1   4.0999999999999996        10.250000000000000        6.1499999999999995     
          53           1   6.1499999999999995        10.250000000000000        8.2000000000000011     
          54           1   8.2000000000000011        10.250000000000000        10.250000000000000     
          55           1   0.0000000000000000        6.1499999999999995        10.250000000000000     
          56           1   4.0999999999999996        4.0999999999999996        0.0000000000000000     
          57           1   2.0500000000000003        4.0999999999999996        10.250000000000000     
          58           1   0.0000000000000000        4.0999999999999996        8.2000000000000011     
          59           1   6.1499999999999995        2.0500000000000003        0.0000000000000000     
          60           1   4.0999999999999996        2.0500000000000003        10.250000000000000     
          61           1   2.0500000000000003        2.0500000000000003        8.2000000000000011     
          62           1   10.250000000000000        0.0000000000000000        10.250000000000000     
          63           1   8.2000000000000011        0.0000000000000000        8.2000000000000011     
          64           1   6.1499999999999995        0.0000000000000000        6.1499999999999995     
          65           1   4.0999999999999996        0.0000000000000000        4.0999999999999996     
          66           1   2.0500000000000003        0.0000000000000000        2.0500000000000003     
          67           1   0.0000000000000000        8.2000000000000011        0.0000000000000000     
          68           1   2.0500000000000003        6.1499999999999995        0.0000000000000000     
          69           1   0.0000000000000000        4.0999999999999996        0.0000000000000000     
          70           1   2.0500000000000003        2.0500000000000003        0.0000000000000000     
          71           1   0.0000000000000000        2.0500000000000003        10.250000000000000     
          72           1   4.0999999999999996        0.0000000000000000        0.0000000000000000     
          73           1   2.0500000000000003        0.0000000000000000        10.250000000000000     
          74           1   0.0000000000000000        0.0000000000000000        8.2000000000000011     
          75           1   0.0000000000000000        0.0000000000000000        0.0000000000000000     
          76           1   0.0000000000000000        0.0000000000000000        4.0999999999999996     
          77           1   2.0500000000000003        0.0000000000000000        6.1499999999999995     
          78           1   4.0999999999999996        0.0000000000000000        8.2000000000000011     
          79           1   6.1499999999999995        0.0000000000000000        10.250000000000000     
          80           1   8.2000000000000011        0.0000000000000000        0.0000000000000000     
          81           1   0.0000000000000000        2.0500000000000003        6.1499999999999995     
          82           1   2.0500000000000003        10.250000000000000        0.0000000000000000     
          83           1   0.0000000000000000        10.250000000000000        10.250000000000000     
          84           1   4.0999999999999996        8.2000000000000011        0.0000000000000000     
          85           1   2.0500000000000003        8.2000000000000011        10.250000000000000     
          86           1   0.0000000000000000        8.2000000000000011        8.2000000000000011     
          87           1   6.1499999999999995        6.1499999999999995        0.0000000000000000     
          88           1   4.0999999999999996        6.1499999999999995        10.250000000000000     
          89           1   10.250000000000000        2.0500000000000003        8.2000000000000011     
          90           1   8.2000000000000011        2.0500000000000003        6.1499999999999995     
          91           1   6.1499999999999995        2.0500000000000003        4.0999999999999996     
          92           1   4.0999999999999996        2.0500000000000003        2.0500000000000003     
          93           1   10.250000000000000        0.0000000000000000        6.1499999999999995     
          94           1   8.2000000000000011        0.0000000000000000        4.0999999999999996     
          95           1   6.1499999999999995        0.0000000000000000        2.0500000000000003     
          96           1   0.0000000000000000        4.0999999999999996        4.0999999999999996     
          97           1   10.250000000000000        2.0500000000000003        0.0000000000000000     
          98           1   8.2000000000000011        2.0500000000000003        10.250000000000000     
          99           1   6.1499999999999995        2.0500000000000003        8.2000000000000011     
         100           1   4.0999999999999996        2.0500000000000003        6.1499999999999995     
         101           1   2.0500000000000003        2.0500000000000003        4.0999999999999996     
         102           1   0.0000000000000000        2.0500000000000003        2.0500000000000003     
         103           1   2.0500000000000003        4.0999999999999996        6.1499999999999995     
         104           1   4.0999999999999996        4.0999999999999996        8.2000000000000011     
         105           1   6.1499999999999995        4.0999999999999996        10.250000000000000     
         106           1   8.2000000000000011        4.0999999999999996        0.0000000000000000     
         107           1   0.0000000000000000        6.1499999999999995        6.1499999999999995     
         108           1   2.0500000000000003        6.1499999999999995        8.2000000000000011     
