 # Something
 108 atoms
 1 atom types
 0   12.225000000000001      xlo xhi 
 0   12.225000000000001      ylo yhi 
 0   12.225000000000001      zlo zhi 
   0.0000000000000000        0.0000000000000000        0.0000000000000000      xy xz yz
 Atoms
 
           1           1   6.1125000000000007        10.187500000000002        0.0000000000000000     
           2           1   4.0750000000000002        10.187500000000002        10.187500000000002     
           3           1   2.0375000000000010        10.187500000000002        8.1500000000000021     
           4           1   0.0000000000000000        10.187500000000002        6.1125000000000007     
           5           1   8.1500000000000021        8.1500000000000021        0.0000000000000000     
           6           1   6.1125000000000007        8.1500000000000021        10.187500000000002     
           7           1   4.0750000000000002        8.1500000000000021        8.1500000000000021     
           8           1   4.0750000000000002        6.1125000000000007        2.0375000000000010     
           9           1   10.187500000000002        4.0750000000000002        6.1125000000000007     
          10           1   8.1500000000000021        4.0750000000000002        4.0750000000000002     
          11           1   6.1125000000000007        4.0750000000000002        2.0375000000000010     
          12           1   10.187500000000002        2.0375000000000010        4.0750000000000002     
          13           1   8.1500000000000021        2.0375000000000010        2.0375000000000010     
          14           1   10.187500000000002        0.0000000000000000        2.0375000000000010     
          15           1   2.0375000000000010        6.1125000000000007        4.0750000000000002     
          16           1   0.0000000000000000        6.1125000000000007        2.0375000000000010     
          17           1   10.187500000000002        4.0750000000000002        10.187500000000002     
          18           1   8.1500000000000021        4.0750000000000002        8.1500000000000021     
          19           1   6.1125000000000007        4.0750000000000002        6.1125000000000007     
          20           1   4.0750000000000002        4.0750000000000002        4.0750000000000002     
          21           1   2.0375000000000010        4.0750000000000002        2.0375000000000010     
          22           1   4.0750000000000002        6.1125000000000007        6.1125000000000007     
          23           1   6.1125000000000007        6.1125000000000007        8.1500000000000021     
          24           1   8.1500000000000021        6.1125000000000007        10.187500000000002     
          25           1   10.187500000000002        6.1125000000000007        0.0000000000000000     
          26           1   0.0000000000000000        8.1500000000000021        4.0750000000000002     
          27           1   2.0375000000000010        8.1500000000000021        6.1125000000000007     
          28           1   10.187500000000002        8.1500000000000021        6.1125000000000007     
          29           1   8.1500000000000021        8.1500000000000021        4.0750000000000002     
          30           1   6.1125000000000007        8.1500000000000021        2.0375000000000010     
          31           1   10.187500000000002        6.1125000000000007        4.0750000000000002     
          32           1   8.1500000000000021        6.1125000000000007        2.0375000000000010     
          33           1   10.187500000000002        4.0750000000000002        2.0375000000000010     
          34           1   10.187500000000002        10.187500000000002        0.0000000000000000     
          35           1   10.187500000000002        10.187500000000002        4.0750000000000002     
          36           1   8.1500000000000021        10.187500000000002        2.0375000000000010     
          37           1   10.187500000000002        8.1500000000000021        2.0375000000000010     
          38           1   10.187500000000002        10.187500000000002        8.1500000000000021     
          39           1   8.1500000000000021        10.187500000000002        6.1125000000000007     
          40           1   6.1125000000000007        10.187500000000002        4.0750000000000002     
          41           1   4.0750000000000002        10.187500000000002        2.0375000000000010     
          42           1   8.1500000000000021        8.1500000000000021        8.1500000000000021     
          43           1   6.1125000000000007        8.1500000000000021        6.1125000000000007     
          44           1   4.0750000000000002        8.1500000000000021        4.0750000000000002     
          45           1   2.0375000000000010        8.1500000000000021        2.0375000000000010     
          46           1   10.187500000000002        6.1125000000000007        8.1500000000000021     
          47           1   8.1500000000000021        6.1125000000000007        6.1125000000000007     
          48           1   6.1125000000000007        6.1125000000000007        4.0750000000000002     
          49           1   10.187500000000002        8.1500000000000021        10.187500000000002     
          50           1   0.0000000000000000        10.187500000000002        2.0375000000000010     
          51           1   2.0375000000000010        10.187500000000002        4.0750000000000002     
          52           1   4.0750000000000002        10.187500000000002        6.1125000000000007     
          53           1   6.1125000000000007        10.187500000000002        8.1500000000000021     
          54           1   8.1500000000000021        10.187500000000002        10.187500000000002     
          55           1   0.0000000000000000        6.1125000000000007        10.187500000000002     
          56           1   4.0750000000000002        4.0750000000000002        0.0000000000000000     
          57           1   2.0375000000000010        4.0750000000000002        10.187500000000002     
          58           1   0.0000000000000000        4.0750000000000002        8.1500000000000021     
          59           1   6.1125000000000007        2.0375000000000010        0.0000000000000000     
          60           1   4.0750000000000002        2.0375000000000010        10.187500000000002     
          61           1   2.0375000000000010        2.0375000000000010        8.1500000000000021     
          62           1   10.187500000000002        0.0000000000000000        10.187500000000002     
          63           1   8.1500000000000021        0.0000000000000000        8.1500000000000021     
          64           1   6.1125000000000007        0.0000000000000000        6.1125000000000007     
          65           1   4.0750000000000002        0.0000000000000000        4.0750000000000002     
          66           1   2.0375000000000010        0.0000000000000000        2.0375000000000010     
          67           1   0.0000000000000000        8.1500000000000021        0.0000000000000000     
          68           1   2.0375000000000010        6.1125000000000007        0.0000000000000000     
          69           1   0.0000000000000000        4.0750000000000002        0.0000000000000000     
          70           1   2.0375000000000010        2.0375000000000010        0.0000000000000000     
          71           1   0.0000000000000000        2.0375000000000010        10.187500000000002     
          72           1   4.0750000000000002        0.0000000000000000        0.0000000000000000     
          73           1   2.0375000000000010        0.0000000000000000        10.187500000000002     
          74           1   0.0000000000000000        0.0000000000000000        8.1500000000000021     
          75           1   0.0000000000000000        0.0000000000000000        0.0000000000000000     
          76           1   0.0000000000000000        0.0000000000000000        4.0750000000000002     
          77           1   2.0375000000000010        0.0000000000000000        6.1125000000000007     
          78           1   4.0750000000000002        0.0000000000000000        8.1500000000000021     
          79           1   6.1125000000000007        0.0000000000000000        10.187500000000002     
          80           1   8.1500000000000021        0.0000000000000000        0.0000000000000000     
          81           1   0.0000000000000000        2.0375000000000010        6.1125000000000007     
          82           1   2.0375000000000010        10.187500000000002        0.0000000000000000     
          83           1   0.0000000000000000        10.187500000000002        10.187500000000002     
          84           1   4.0750000000000002        8.1500000000000021        0.0000000000000000     
          85           1   2.0375000000000010        8.1500000000000021        10.187500000000002     
          86           1   0.0000000000000000        8.1500000000000021        8.1500000000000021     
          87           1   6.1125000000000007        6.1125000000000007        0.0000000000000000     
          88           1   4.0750000000000002        6.1125000000000007        10.187500000000002     
          89           1   10.187500000000002        2.0375000000000010        8.1500000000000021     
          90           1   8.1500000000000021        2.0375000000000010        6.1125000000000007     
          91           1   6.1125000000000007        2.0375000000000010        4.0750000000000002     
          92           1   4.0750000000000002        2.0375000000000010        2.0375000000000010     
          93           1   10.187500000000002        0.0000000000000000        6.1125000000000007     
          94           1   8.1500000000000021        0.0000000000000000        4.0750000000000002     
          95           1   6.1125000000000007        0.0000000000000000        2.0375000000000010     
          96           1   0.0000000000000000        4.0750000000000002        4.0750000000000002     
          97           1   10.187500000000002        2.0375000000000010        0.0000000000000000     
          98           1   8.1500000000000021        2.0375000000000010        10.187500000000002     
          99           1   6.1125000000000007        2.0375000000000010        8.1500000000000021     
         100           1   4.0750000000000002        2.0375000000000010        6.1125000000000007     
         101           1   2.0375000000000010        2.0375000000000010        4.0750000000000002     
         102           1   0.0000000000000000        2.0375000000000010        2.0375000000000010     
         103           1   2.0375000000000010        4.0750000000000002        6.1125000000000007     
         104           1   4.0750000000000002        4.0750000000000002        8.1500000000000021     
         105           1   6.1125000000000007        4.0750000000000002        10.187500000000002     
         106           1   8.1500000000000021        4.0750000000000002        0.0000000000000000     
         107           1   0.0000000000000000        6.1125000000000007        6.1125000000000007     
         108           1   2.0375000000000010        6.1125000000000007        8.1500000000000021     
