 # Something
 108 atoms
 1 atom types
 0   12.000000000000004      xlo xhi 
 0   12.000000000000004      ylo yhi 
 0   12.000000000000004      zlo zhi 
   0.0000000000000000        0.0000000000000000        0.0000000000000000      xy xz yz
 Atoms
 
           1           1   6.0000000000000018        10.000000000000004        0.0000000000000000     
           2           1   4.0000000000000009        10.000000000000004        10.000000000000004     
           3           1   2.0000000000000013        10.000000000000004        8.0000000000000036     
           4           1   0.0000000000000000        10.000000000000004        6.0000000000000018     
           5           1   8.0000000000000036        8.0000000000000036        0.0000000000000000     
           6           1   6.0000000000000018        8.0000000000000036        10.000000000000004     
           7           1   4.0000000000000009        8.0000000000000036        8.0000000000000036     
           8           1   4.0000000000000009        6.0000000000000018        2.0000000000000013     
           9           1   10.000000000000004        4.0000000000000009        6.0000000000000018     
          10           1   8.0000000000000036        4.0000000000000009        4.0000000000000009     
          11           1   6.0000000000000018        4.0000000000000009        2.0000000000000013     
          12           1   10.000000000000004        2.0000000000000013        4.0000000000000009     
          13           1   8.0000000000000036        2.0000000000000013        2.0000000000000013     
          14           1   10.000000000000004        0.0000000000000000        2.0000000000000013     
          15           1   2.0000000000000013        6.0000000000000018        4.0000000000000009     
          16           1   0.0000000000000000        6.0000000000000018        2.0000000000000013     
          17           1   10.000000000000004        4.0000000000000009        10.000000000000004     
          18           1   8.0000000000000036        4.0000000000000009        8.0000000000000036     
          19           1   6.0000000000000018        4.0000000000000009        6.0000000000000018     
          20           1   4.0000000000000009        4.0000000000000009        4.0000000000000009     
          21           1   2.0000000000000013        4.0000000000000009        2.0000000000000013     
          22           1   4.0000000000000009        6.0000000000000018        6.0000000000000018     
          23           1   6.0000000000000018        6.0000000000000018        8.0000000000000036     
          24           1   8.0000000000000036        6.0000000000000018        10.000000000000004     
          25           1   10.000000000000004        6.0000000000000018        0.0000000000000000     
          26           1   0.0000000000000000        8.0000000000000036        4.0000000000000009     
          27           1   2.0000000000000013        8.0000000000000036        6.0000000000000018     
          28           1   10.000000000000004        8.0000000000000036        6.0000000000000018     
          29           1   8.0000000000000036        8.0000000000000036        4.0000000000000009     
          30           1   6.0000000000000018        8.0000000000000036        2.0000000000000013     
          31           1   10.000000000000004        6.0000000000000018        4.0000000000000009     
          32           1   8.0000000000000036        6.0000000000000018        2.0000000000000013     
          33           1   10.000000000000004        4.0000000000000009        2.0000000000000013     
          34           1   10.000000000000004        10.000000000000004        0.0000000000000000     
          35           1   10.000000000000004        10.000000000000004        4.0000000000000009     
          36           1   8.0000000000000036        10.000000000000004        2.0000000000000013     
          37           1   10.000000000000004        8.0000000000000036        2.0000000000000013     
          38           1   10.000000000000004        10.000000000000004        8.0000000000000036     
          39           1   8.0000000000000036        10.000000000000004        6.0000000000000018     
          40           1   6.0000000000000018        10.000000000000004        4.0000000000000009     
          41           1   4.0000000000000009        10.000000000000004        2.0000000000000013     
          42           1   8.0000000000000036        8.0000000000000036        8.0000000000000036     
          43           1   6.0000000000000018        8.0000000000000036        6.0000000000000018     
          44           1   4.0000000000000009        8.0000000000000036        4.0000000000000009     
          45           1   2.0000000000000013        8.0000000000000036        2.0000000000000013     
          46           1   10.000000000000004        6.0000000000000018        8.0000000000000036     
          47           1   8.0000000000000036        6.0000000000000018        6.0000000000000018     
          48           1   6.0000000000000018        6.0000000000000018        4.0000000000000009     
          49           1   10.000000000000004        8.0000000000000036        10.000000000000004     
          50           1   0.0000000000000000        10.000000000000004        2.0000000000000013     
          51           1   2.0000000000000013        10.000000000000004        4.0000000000000009     
          52           1   4.0000000000000009        10.000000000000004        6.0000000000000018     
          53           1   6.0000000000000018        10.000000000000004        8.0000000000000036     
          54           1   8.0000000000000036        10.000000000000004        10.000000000000004     
          55           1   0.0000000000000000        6.0000000000000018        10.000000000000004     
          56           1   4.0000000000000009        4.0000000000000009        0.0000000000000000     
          57           1   2.0000000000000013        4.0000000000000009        10.000000000000004     
          58           1   0.0000000000000000        4.0000000000000009        8.0000000000000036     
          59           1   6.0000000000000018        2.0000000000000013        0.0000000000000000     
          60           1   4.0000000000000009        2.0000000000000013        10.000000000000004     
          61           1   2.0000000000000013        2.0000000000000013        8.0000000000000036     
          62           1   10.000000000000004        0.0000000000000000        10.000000000000004     
          63           1   8.0000000000000036        0.0000000000000000        8.0000000000000036     
          64           1   6.0000000000000018        0.0000000000000000        6.0000000000000018     
          65           1   4.0000000000000009        0.0000000000000000        4.0000000000000009     
          66           1   2.0000000000000013        0.0000000000000000        2.0000000000000013     
          67           1   0.0000000000000000        8.0000000000000036        0.0000000000000000     
          68           1   2.0000000000000013        6.0000000000000018        0.0000000000000000     
          69           1   0.0000000000000000        4.0000000000000009        0.0000000000000000     
          70           1   2.0000000000000013        2.0000000000000013        0.0000000000000000     
          71           1   0.0000000000000000        2.0000000000000013        10.000000000000004     
          72           1   4.0000000000000009        0.0000000000000000        0.0000000000000000     
          73           1   2.0000000000000013        0.0000000000000000        10.000000000000004     
          74           1   0.0000000000000000        0.0000000000000000        8.0000000000000036     
          75           1   0.0000000000000000        0.0000000000000000        0.0000000000000000     
          76           1   0.0000000000000000        0.0000000000000000        4.0000000000000009     
          77           1   2.0000000000000013        0.0000000000000000        6.0000000000000018     
          78           1   4.0000000000000009        0.0000000000000000        8.0000000000000036     
          79           1   6.0000000000000018        0.0000000000000000        10.000000000000004     
          80           1   8.0000000000000036        0.0000000000000000        0.0000000000000000     
          81           1   0.0000000000000000        2.0000000000000013        6.0000000000000018     
          82           1   2.0000000000000013        10.000000000000004        0.0000000000000000     
          83           1   0.0000000000000000        10.000000000000004        10.000000000000004     
          84           1   4.0000000000000009        8.0000000000000036        0.0000000000000000     
          85           1   2.0000000000000013        8.0000000000000036        10.000000000000004     
          86           1   0.0000000000000000        8.0000000000000036        8.0000000000000036     
          87           1   6.0000000000000018        6.0000000000000018        0.0000000000000000     
          88           1   4.0000000000000009        6.0000000000000018        10.000000000000004     
          89           1   10.000000000000004        2.0000000000000013        8.0000000000000036     
          90           1   8.0000000000000036        2.0000000000000013        6.0000000000000018     
          91           1   6.0000000000000018        2.0000000000000013        4.0000000000000009     
          92           1   4.0000000000000009        2.0000000000000013        2.0000000000000013     
          93           1   10.000000000000004        0.0000000000000000        6.0000000000000018     
          94           1   8.0000000000000036        0.0000000000000000        4.0000000000000009     
          95           1   6.0000000000000018        0.0000000000000000        2.0000000000000013     
          96           1   0.0000000000000000        4.0000000000000009        4.0000000000000009     
          97           1   10.000000000000004        2.0000000000000013        0.0000000000000000     
          98           1   8.0000000000000036        2.0000000000000013        10.000000000000004     
          99           1   6.0000000000000018        2.0000000000000013        8.0000000000000036     
         100           1   4.0000000000000009        2.0000000000000013        6.0000000000000018     
         101           1   2.0000000000000013        2.0000000000000013        4.0000000000000009     
         102           1   0.0000000000000000        2.0000000000000013        2.0000000000000013     
         103           1   2.0000000000000013        4.0000000000000009        6.0000000000000018     
         104           1   4.0000000000000009        4.0000000000000009        8.0000000000000036     
         105           1   6.0000000000000018        4.0000000000000009        10.000000000000004     
         106           1   8.0000000000000036        4.0000000000000009        0.0000000000000000     
         107           1   0.0000000000000000        6.0000000000000018        6.0000000000000018     
         108           1   2.0000000000000013        6.0000000000000018        8.0000000000000036     
