 # Something
 108 atoms
 1 atom types
 0   12.750000000000002      xlo xhi 
 0   12.750000000000002      ylo yhi 
 0   12.750000000000002      zlo zhi 
   0.0000000000000000        0.0000000000000000        0.0000000000000000      xy xz yz
 Atoms
 
           1           1   6.3750000000000009        10.625000000000002        0.0000000000000000     
           2           1   4.2500000000000000        10.625000000000002        10.625000000000002     
           3           1   2.1250000000000009        10.625000000000002        8.5000000000000018     
           4           1   0.0000000000000000        10.625000000000002        6.3750000000000009     
           5           1   8.5000000000000018        8.5000000000000018        0.0000000000000000     
           6           1   6.3750000000000009        8.5000000000000018        10.625000000000002     
           7           1   4.2500000000000000        8.5000000000000018        8.5000000000000018     
           8           1   4.2500000000000000        6.3750000000000009        2.1250000000000009     
           9           1   10.625000000000002        4.2500000000000000        6.3750000000000009     
          10           1   8.5000000000000018        4.2500000000000000        4.2500000000000000     
          11           1   6.3750000000000009        4.2500000000000000        2.1250000000000009     
          12           1   10.625000000000002        2.1250000000000009        4.2500000000000000     
          13           1   8.5000000000000018        2.1250000000000009        2.1250000000000009     
          14           1   10.625000000000002        0.0000000000000000        2.1250000000000009     
          15           1   2.1250000000000009        6.3750000000000009        4.2500000000000000     
          16           1   0.0000000000000000        6.3750000000000009        2.1250000000000009     
          17           1   10.625000000000002        4.2500000000000000        10.625000000000002     
          18           1   8.5000000000000018        4.2500000000000000        8.5000000000000018     
          19           1   6.3750000000000009        4.2500000000000000        6.3750000000000009     
          20           1   4.2500000000000000        4.2500000000000000        4.2500000000000000     
          21           1   2.1250000000000009        4.2500000000000000        2.1250000000000009     
          22           1   4.2500000000000000        6.3750000000000009        6.3750000000000009     
          23           1   6.3750000000000009        6.3750000000000009        8.5000000000000018     
          24           1   8.5000000000000018        6.3750000000000009        10.625000000000002     
          25           1   10.625000000000002        6.3750000000000009        0.0000000000000000     
          26           1   0.0000000000000000        8.5000000000000018        4.2500000000000000     
          27           1   2.1250000000000009        8.5000000000000018        6.3750000000000009     
          28           1   10.625000000000002        8.5000000000000018        6.3750000000000009     
          29           1   8.5000000000000018        8.5000000000000018        4.2500000000000000     
          30           1   6.3750000000000009        8.5000000000000018        2.1250000000000009     
          31           1   10.625000000000002        6.3750000000000009        4.2500000000000000     
          32           1   8.5000000000000018        6.3750000000000009        2.1250000000000009     
          33           1   10.625000000000002        4.2500000000000000        2.1250000000000009     
          34           1   10.625000000000002        10.625000000000002        0.0000000000000000     
          35           1   10.625000000000002        10.625000000000002        4.2500000000000000     
          36           1   8.5000000000000018        10.625000000000002        2.1250000000000009     
          37           1   10.625000000000002        8.5000000000000018        2.1250000000000009     
          38           1   10.625000000000002        10.625000000000002        8.5000000000000018     
          39           1   8.5000000000000018        10.625000000000002        6.3750000000000009     
          40           1   6.3750000000000009        10.625000000000002        4.2500000000000000     
          41           1   4.2500000000000000        10.625000000000002        2.1250000000000009     
          42           1   8.5000000000000018        8.5000000000000018        8.5000000000000018     
          43           1   6.3750000000000009        8.5000000000000018        6.3750000000000009     
          44           1   4.2500000000000000        8.5000000000000018        4.2500000000000000     
          45           1   2.1250000000000009        8.5000000000000018        2.1250000000000009     
          46           1   10.625000000000002        6.3750000000000009        8.5000000000000018     
          47           1   8.5000000000000018        6.3750000000000009        6.3750000000000009     
          48           1   6.3750000000000009        6.3750000000000009        4.2500000000000000     
          49           1   10.625000000000002        8.5000000000000018        10.625000000000002     
          50           1   0.0000000000000000        10.625000000000002        2.1250000000000009     
          51           1   2.1250000000000009        10.625000000000002        4.2500000000000000     
          52           1   4.2500000000000000        10.625000000000002        6.3750000000000009     
          53           1   6.3750000000000009        10.625000000000002        8.5000000000000018     
          54           1   8.5000000000000018        10.625000000000002        10.625000000000002     
          55           1   0.0000000000000000        6.3750000000000009        10.625000000000002     
          56           1   4.2500000000000000        4.2500000000000000        0.0000000000000000     
          57           1   2.1250000000000009        4.2500000000000000        10.625000000000002     
          58           1   0.0000000000000000        4.2500000000000000        8.5000000000000018     
          59           1   6.3750000000000009        2.1250000000000009        0.0000000000000000     
          60           1   4.2500000000000000        2.1250000000000009        10.625000000000002     
          61           1   2.1250000000000009        2.1250000000000009        8.5000000000000018     
          62           1   10.625000000000002        0.0000000000000000        10.625000000000002     
          63           1   8.5000000000000018        0.0000000000000000        8.5000000000000018     
          64           1   6.3750000000000009        0.0000000000000000        6.3750000000000009     
          65           1   4.2500000000000000        0.0000000000000000        4.2500000000000000     
          66           1   2.1250000000000009        0.0000000000000000        2.1250000000000009     
          67           1   0.0000000000000000        8.5000000000000018        0.0000000000000000     
          68           1   2.1250000000000009        6.3750000000000009        0.0000000000000000     
          69           1   0.0000000000000000        4.2500000000000000        0.0000000000000000     
          70           1   2.1250000000000009        2.1250000000000009        0.0000000000000000     
          71           1   0.0000000000000000        2.1250000000000009        10.625000000000002     
          72           1   4.2500000000000000        0.0000000000000000        0.0000000000000000     
          73           1   2.1250000000000009        0.0000000000000000        10.625000000000002     
          74           1   0.0000000000000000        0.0000000000000000        8.5000000000000018     
          75           1   0.0000000000000000        0.0000000000000000        0.0000000000000000     
          76           1   0.0000000000000000        0.0000000000000000        4.2500000000000000     
          77           1   2.1250000000000009        0.0000000000000000        6.3750000000000009     
          78           1   4.2500000000000000        0.0000000000000000        8.5000000000000018     
          79           1   6.3750000000000009        0.0000000000000000        10.625000000000002     
          80           1   8.5000000000000018        0.0000000000000000        0.0000000000000000     
          81           1   0.0000000000000000        2.1250000000000009        6.3750000000000009     
          82           1   2.1250000000000009        10.625000000000002        0.0000000000000000     
          83           1   0.0000000000000000        10.625000000000002        10.625000000000002     
          84           1   4.2500000000000000        8.5000000000000018        0.0000000000000000     
          85           1   2.1250000000000009        8.5000000000000018        10.625000000000002     
          86           1   0.0000000000000000        8.5000000000000018        8.5000000000000018     
          87           1   6.3750000000000009        6.3750000000000009        0.0000000000000000     
          88           1   4.2500000000000000        6.3750000000000009        10.625000000000002     
          89           1   10.625000000000002        2.1250000000000009        8.5000000000000018     
          90           1   8.5000000000000018        2.1250000000000009        6.3750000000000009     
          91           1   6.3750000000000009        2.1250000000000009        4.2500000000000000     
          92           1   4.2500000000000000        2.1250000000000009        2.1250000000000009     
          93           1   10.625000000000002        0.0000000000000000        6.3750000000000009     
          94           1   8.5000000000000018        0.0000000000000000        4.2500000000000000     
          95           1   6.3750000000000009        0.0000000000000000        2.1250000000000009     
          96           1   0.0000000000000000        4.2500000000000000        4.2500000000000000     
          97           1   10.625000000000002        2.1250000000000009        0.0000000000000000     
          98           1   8.5000000000000018        2.1250000000000009        10.625000000000002     
          99           1   6.3750000000000009        2.1250000000000009        8.5000000000000018     
         100           1   4.2500000000000000        2.1250000000000009        6.3750000000000009     
         101           1   2.1250000000000009        2.1250000000000009        4.2500000000000000     
         102           1   0.0000000000000000        2.1250000000000009        2.1250000000000009     
         103           1   2.1250000000000009        4.2500000000000000        6.3750000000000009     
         104           1   4.2500000000000000        4.2500000000000000        8.5000000000000018     
         105           1   6.3750000000000009        4.2500000000000000        10.625000000000002     
         106           1   8.5000000000000018        4.2500000000000000        0.0000000000000000     
         107           1   0.0000000000000000        6.3750000000000009        6.3750000000000009     
         108           1   2.1250000000000009        6.3750000000000009        8.5000000000000018     
