 # Something
 108 atoms
 1 atom types
 0   12.675000000000001      xlo xhi 
 0   12.675000000000001      ylo yhi 
 0   12.675000000000001      zlo zhi 
   0.0000000000000000        0.0000000000000000        0.0000000000000000      xy xz yz
 Atoms
 
           1           1   6.3375000000000004        10.562500000000002        0.0000000000000000     
           2           1   4.2249999999999996        10.562500000000002        10.562500000000002     
           3           1   2.1125000000000007        10.562500000000002        8.4500000000000011     
           4           1   0.0000000000000000        10.562500000000002        6.3375000000000004     
           5           1   8.4500000000000011        8.4500000000000011        0.0000000000000000     
           6           1   6.3375000000000004        8.4500000000000011        10.562500000000002     
           7           1   4.2249999999999996        8.4500000000000011        8.4500000000000011     
           8           1   4.2249999999999996        6.3375000000000004        2.1125000000000007     
           9           1   10.562500000000002        4.2249999999999996        6.3375000000000004     
          10           1   8.4500000000000011        4.2249999999999996        4.2249999999999996     
          11           1   6.3375000000000004        4.2249999999999996        2.1125000000000007     
          12           1   10.562500000000002        2.1125000000000007        4.2249999999999996     
          13           1   8.4500000000000011        2.1125000000000007        2.1125000000000007     
          14           1   10.562500000000002        0.0000000000000000        2.1125000000000007     
          15           1   2.1125000000000007        6.3375000000000004        4.2249999999999996     
          16           1   0.0000000000000000        6.3375000000000004        2.1125000000000007     
          17           1   10.562500000000002        4.2249999999999996        10.562500000000002     
          18           1   8.4500000000000011        4.2249999999999996        8.4500000000000011     
          19           1   6.3375000000000004        4.2249999999999996        6.3375000000000004     
          20           1   4.2249999999999996        4.2249999999999996        4.2249999999999996     
          21           1   2.1125000000000007        4.2249999999999996        2.1125000000000007     
          22           1   4.2249999999999996        6.3375000000000004        6.3375000000000004     
          23           1   6.3375000000000004        6.3375000000000004        8.4500000000000011     
          24           1   8.4500000000000011        6.3375000000000004        10.562500000000002     
          25           1   10.562500000000002        6.3375000000000004        0.0000000000000000     
          26           1   0.0000000000000000        8.4500000000000011        4.2249999999999996     
          27           1   2.1125000000000007        8.4500000000000011        6.3375000000000004     
          28           1   10.562500000000002        8.4500000000000011        6.3375000000000004     
          29           1   8.4500000000000011        8.4500000000000011        4.2249999999999996     
          30           1   6.3375000000000004        8.4500000000000011        2.1125000000000007     
          31           1   10.562500000000002        6.3375000000000004        4.2249999999999996     
          32           1   8.4500000000000011        6.3375000000000004        2.1125000000000007     
          33           1   10.562500000000002        4.2249999999999996        2.1125000000000007     
          34           1   10.562500000000002        10.562500000000002        0.0000000000000000     
          35           1   10.562500000000002        10.562500000000002        4.2249999999999996     
          36           1   8.4500000000000011        10.562500000000002        2.1125000000000007     
          37           1   10.562500000000002        8.4500000000000011        2.1125000000000007     
          38           1   10.562500000000002        10.562500000000002        8.4500000000000011     
          39           1   8.4500000000000011        10.562500000000002        6.3375000000000004     
          40           1   6.3375000000000004        10.562500000000002        4.2249999999999996     
          41           1   4.2249999999999996        10.562500000000002        2.1125000000000007     
          42           1   8.4500000000000011        8.4500000000000011        8.4500000000000011     
          43           1   6.3375000000000004        8.4500000000000011        6.3375000000000004     
          44           1   4.2249999999999996        8.4500000000000011        4.2249999999999996     
          45           1   2.1125000000000007        8.4500000000000011        2.1125000000000007     
          46           1   10.562500000000002        6.3375000000000004        8.4500000000000011     
          47           1   8.4500000000000011        6.3375000000000004        6.3375000000000004     
          48           1   6.3375000000000004        6.3375000000000004        4.2249999999999996     
          49           1   10.562500000000002        8.4500000000000011        10.562500000000002     
          50           1   0.0000000000000000        10.562500000000002        2.1125000000000007     
          51           1   2.1125000000000007        10.562500000000002        4.2249999999999996     
          52           1   4.2249999999999996        10.562500000000002        6.3375000000000004     
          53           1   6.3375000000000004        10.562500000000002        8.4500000000000011     
          54           1   8.4500000000000011        10.562500000000002        10.562500000000002     
          55           1   0.0000000000000000        6.3375000000000004        10.562500000000002     
          56           1   4.2249999999999996        4.2249999999999996        0.0000000000000000     
          57           1   2.1125000000000007        4.2249999999999996        10.562500000000002     
          58           1   0.0000000000000000        4.2249999999999996        8.4500000000000011     
          59           1   6.3375000000000004        2.1125000000000007        0.0000000000000000     
          60           1   4.2249999999999996        2.1125000000000007        10.562500000000002     
          61           1   2.1125000000000007        2.1125000000000007        8.4500000000000011     
          62           1   10.562500000000002        0.0000000000000000        10.562500000000002     
          63           1   8.4500000000000011        0.0000000000000000        8.4500000000000011     
          64           1   6.3375000000000004        0.0000000000000000        6.3375000000000004     
          65           1   4.2249999999999996        0.0000000000000000        4.2249999999999996     
          66           1   2.1125000000000007        0.0000000000000000        2.1125000000000007     
          67           1   0.0000000000000000        8.4500000000000011        0.0000000000000000     
          68           1   2.1125000000000007        6.3375000000000004        0.0000000000000000     
          69           1   0.0000000000000000        4.2249999999999996        0.0000000000000000     
          70           1   2.1125000000000007        2.1125000000000007        0.0000000000000000     
          71           1   0.0000000000000000        2.1125000000000007        10.562500000000002     
          72           1   4.2249999999999996        0.0000000000000000        0.0000000000000000     
          73           1   2.1125000000000007        0.0000000000000000        10.562500000000002     
          74           1   0.0000000000000000        0.0000000000000000        8.4500000000000011     
          75           1   0.0000000000000000        0.0000000000000000        0.0000000000000000     
          76           1   0.0000000000000000        0.0000000000000000        4.2249999999999996     
          77           1   2.1125000000000007        0.0000000000000000        6.3375000000000004     
          78           1   4.2249999999999996        0.0000000000000000        8.4500000000000011     
          79           1   6.3375000000000004        0.0000000000000000        10.562500000000002     
          80           1   8.4500000000000011        0.0000000000000000        0.0000000000000000     
          81           1   0.0000000000000000        2.1125000000000007        6.3375000000000004     
          82           1   2.1125000000000007        10.562500000000002        0.0000000000000000     
          83           1   0.0000000000000000        10.562500000000002        10.562500000000002     
          84           1   4.2249999999999996        8.4500000000000011        0.0000000000000000     
          85           1   2.1125000000000007        8.4500000000000011        10.562500000000002     
          86           1   0.0000000000000000        8.4500000000000011        8.4500000000000011     
          87           1   6.3375000000000004        6.3375000000000004        0.0000000000000000     
          88           1   4.2249999999999996        6.3375000000000004        10.562500000000002     
          89           1   10.562500000000002        2.1125000000000007        8.4500000000000011     
          90           1   8.4500000000000011        2.1125000000000007        6.3375000000000004     
          91           1   6.3375000000000004        2.1125000000000007        4.2249999999999996     
          92           1   4.2249999999999996        2.1125000000000007        2.1125000000000007     
          93           1   10.562500000000002        0.0000000000000000        6.3375000000000004     
          94           1   8.4500000000000011        0.0000000000000000        4.2249999999999996     
          95           1   6.3375000000000004        0.0000000000000000        2.1125000000000007     
          96           1   0.0000000000000000        4.2249999999999996        4.2249999999999996     
          97           1   10.562500000000002        2.1125000000000007        0.0000000000000000     
          98           1   8.4500000000000011        2.1125000000000007        10.562500000000002     
          99           1   6.3375000000000004        2.1125000000000007        8.4500000000000011     
         100           1   4.2249999999999996        2.1125000000000007        6.3375000000000004     
         101           1   2.1125000000000007        2.1125000000000007        4.2249999999999996     
         102           1   0.0000000000000000        2.1125000000000007        2.1125000000000007     
         103           1   2.1125000000000007        4.2249999999999996        6.3375000000000004     
         104           1   4.2249999999999996        4.2249999999999996        8.4500000000000011     
         105           1   6.3375000000000004        4.2249999999999996        10.562500000000002     
         106           1   8.4500000000000011        4.2249999999999996        0.0000000000000000     
         107           1   0.0000000000000000        6.3375000000000004        6.3375000000000004     
         108           1   2.1125000000000007        6.3375000000000004        8.4500000000000011     
