 # Something
 108 atoms
 1 atom types
 0   12.150000000000000      xlo xhi 
 0   12.150000000000000      ylo yhi 
 0   12.150000000000000      zlo zhi 
   0.0000000000000000        0.0000000000000000        0.0000000000000000      xy xz yz
 Atoms
 
           1           1   6.0750000000000002        10.125000000000000        0.0000000000000000     
           2           1   4.0499999999999998        10.125000000000000        10.125000000000000     
           3           1   2.0250000000000008        10.125000000000000        8.1000000000000014     
           4           1   0.0000000000000000        10.125000000000000        6.0750000000000002     
           5           1   8.1000000000000014        8.1000000000000014        0.0000000000000000     
           6           1   6.0750000000000002        8.1000000000000014        10.125000000000000     
           7           1   4.0499999999999998        8.1000000000000014        8.1000000000000014     
           8           1   4.0499999999999998        6.0750000000000002        2.0250000000000008     
           9           1   10.125000000000000        4.0499999999999998        6.0750000000000002     
          10           1   8.1000000000000014        4.0499999999999998        4.0499999999999998     
          11           1   6.0750000000000002        4.0499999999999998        2.0250000000000008     
          12           1   10.125000000000000        2.0250000000000008        4.0499999999999998     
          13           1   8.1000000000000014        2.0250000000000008        2.0250000000000008     
          14           1   10.125000000000000        0.0000000000000000        2.0250000000000008     
          15           1   2.0250000000000008        6.0750000000000002        4.0499999999999998     
          16           1   0.0000000000000000        6.0750000000000002        2.0250000000000008     
          17           1   10.125000000000000        4.0499999999999998        10.125000000000000     
          18           1   8.1000000000000014        4.0499999999999998        8.1000000000000014     
          19           1   6.0750000000000002        4.0499999999999998        6.0750000000000002     
          20           1   4.0499999999999998        4.0499999999999998        4.0499999999999998     
          21           1   2.0250000000000008        4.0499999999999998        2.0250000000000008     
          22           1   4.0499999999999998        6.0750000000000002        6.0750000000000002     
          23           1   6.0750000000000002        6.0750000000000002        8.1000000000000014     
          24           1   8.1000000000000014        6.0750000000000002        10.125000000000000     
          25           1   10.125000000000000        6.0750000000000002        0.0000000000000000     
          26           1   0.0000000000000000        8.1000000000000014        4.0499999999999998     
          27           1   2.0250000000000008        8.1000000000000014        6.0750000000000002     
          28           1   10.125000000000000        8.1000000000000014        6.0750000000000002     
          29           1   8.1000000000000014        8.1000000000000014        4.0499999999999998     
          30           1   6.0750000000000002        8.1000000000000014        2.0250000000000008     
          31           1   10.125000000000000        6.0750000000000002        4.0499999999999998     
          32           1   8.1000000000000014        6.0750000000000002        2.0250000000000008     
          33           1   10.125000000000000        4.0499999999999998        2.0250000000000008     
          34           1   10.125000000000000        10.125000000000000        0.0000000000000000     
          35           1   10.125000000000000        10.125000000000000        4.0499999999999998     
          36           1   8.1000000000000014        10.125000000000000        2.0250000000000008     
          37           1   10.125000000000000        8.1000000000000014        2.0250000000000008     
          38           1   10.125000000000000        10.125000000000000        8.1000000000000014     
          39           1   8.1000000000000014        10.125000000000000        6.0750000000000002     
          40           1   6.0750000000000002        10.125000000000000        4.0499999999999998     
          41           1   4.0499999999999998        10.125000000000000        2.0250000000000008     
          42           1   8.1000000000000014        8.1000000000000014        8.1000000000000014     
          43           1   6.0750000000000002        8.1000000000000014        6.0750000000000002     
          44           1   4.0499999999999998        8.1000000000000014        4.0499999999999998     
          45           1   2.0250000000000008        8.1000000000000014        2.0250000000000008     
          46           1   10.125000000000000        6.0750000000000002        8.1000000000000014     
          47           1   8.1000000000000014        6.0750000000000002        6.0750000000000002     
          48           1   6.0750000000000002        6.0750000000000002        4.0499999999999998     
          49           1   10.125000000000000        8.1000000000000014        10.125000000000000     
          50           1   0.0000000000000000        10.125000000000000        2.0250000000000008     
          51           1   2.0250000000000008        10.125000000000000        4.0499999999999998     
          52           1   4.0499999999999998        10.125000000000000        6.0750000000000002     
          53           1   6.0750000000000002        10.125000000000000        8.1000000000000014     
          54           1   8.1000000000000014        10.125000000000000        10.125000000000000     
          55           1   0.0000000000000000        6.0750000000000002        10.125000000000000     
          56           1   4.0499999999999998        4.0499999999999998        0.0000000000000000     
          57           1   2.0250000000000008        4.0499999999999998        10.125000000000000     
          58           1   0.0000000000000000        4.0499999999999998        8.1000000000000014     
          59           1   6.0750000000000002        2.0250000000000008        0.0000000000000000     
          60           1   4.0499999999999998        2.0250000000000008        10.125000000000000     
          61           1   2.0250000000000008        2.0250000000000008        8.1000000000000014     
          62           1   10.125000000000000        0.0000000000000000        10.125000000000000     
          63           1   8.1000000000000014        0.0000000000000000        8.1000000000000014     
          64           1   6.0750000000000002        0.0000000000000000        6.0750000000000002     
          65           1   4.0499999999999998        0.0000000000000000        4.0499999999999998     
          66           1   2.0250000000000008        0.0000000000000000        2.0250000000000008     
          67           1   0.0000000000000000        8.1000000000000014        0.0000000000000000     
          68           1   2.0250000000000008        6.0750000000000002        0.0000000000000000     
          69           1   0.0000000000000000        4.0499999999999998        0.0000000000000000     
          70           1   2.0250000000000008        2.0250000000000008        0.0000000000000000     
          71           1   0.0000000000000000        2.0250000000000008        10.125000000000000     
          72           1   4.0499999999999998        0.0000000000000000        0.0000000000000000     
          73           1   2.0250000000000008        0.0000000000000000        10.125000000000000     
          74           1   0.0000000000000000        0.0000000000000000        8.1000000000000014     
          75           1   0.0000000000000000        0.0000000000000000        0.0000000000000000     
          76           1   0.0000000000000000        0.0000000000000000        4.0499999999999998     
          77           1   2.0250000000000008        0.0000000000000000        6.0750000000000002     
          78           1   4.0499999999999998        0.0000000000000000        8.1000000000000014     
          79           1   6.0750000000000002        0.0000000000000000        10.125000000000000     
          80           1   8.1000000000000014        0.0000000000000000        0.0000000000000000     
          81           1   0.0000000000000000        2.0250000000000008        6.0750000000000002     
          82           1   2.0250000000000008        10.125000000000000        0.0000000000000000     
          83           1   0.0000000000000000        10.125000000000000        10.125000000000000     
          84           1   4.0499999999999998        8.1000000000000014        0.0000000000000000     
          85           1   2.0250000000000008        8.1000000000000014        10.125000000000000     
          86           1   0.0000000000000000        8.1000000000000014        8.1000000000000014     
          87           1   6.0750000000000002        6.0750000000000002        0.0000000000000000     
          88           1   4.0499999999999998        6.0750000000000002        10.125000000000000     
          89           1   10.125000000000000        2.0250000000000008        8.1000000000000014     
          90           1   8.1000000000000014        2.0250000000000008        6.0750000000000002     
          91           1   6.0750000000000002        2.0250000000000008        4.0499999999999998     
          92           1   4.0499999999999998        2.0250000000000008        2.0250000000000008     
          93           1   10.125000000000000        0.0000000000000000        6.0750000000000002     
          94           1   8.1000000000000014        0.0000000000000000        4.0499999999999998     
          95           1   6.0750000000000002        0.0000000000000000        2.0250000000000008     
          96           1   0.0000000000000000        4.0499999999999998        4.0499999999999998     
          97           1   10.125000000000000        2.0250000000000008        0.0000000000000000     
          98           1   8.1000000000000014        2.0250000000000008        10.125000000000000     
          99           1   6.0750000000000002        2.0250000000000008        8.1000000000000014     
         100           1   4.0499999999999998        2.0250000000000008        6.0750000000000002     
         101           1   2.0250000000000008        2.0250000000000008        4.0499999999999998     
         102           1   0.0000000000000000        2.0250000000000008        2.0250000000000008     
         103           1   2.0250000000000008        4.0499999999999998        6.0750000000000002     
         104           1   4.0499999999999998        4.0499999999999998        8.1000000000000014     
         105           1   6.0750000000000002        4.0499999999999998        10.125000000000000     
         106           1   8.1000000000000014        4.0499999999999998        0.0000000000000000     
         107           1   0.0000000000000000        6.0750000000000002        6.0750000000000002     
         108           1   2.0250000000000008        6.0750000000000002        8.1000000000000014     
