 # Something
 108 atoms
 1 atom types
 0   12.450000000000003      xlo xhi 
 0   12.450000000000003      ylo yhi 
 0   12.450000000000003      zlo zhi 
   0.0000000000000000        0.0000000000000000        0.0000000000000000      xy xz yz
 Atoms
 
           1           1   6.2250000000000014        10.375000000000004        0.0000000000000000     
           2           1   4.1500000000000004        10.375000000000004        10.375000000000004     
           3           1   2.0750000000000011        10.375000000000004        8.3000000000000025     
           4           1   0.0000000000000000        10.375000000000004        6.2250000000000014     
           5           1   8.3000000000000025        8.3000000000000025        0.0000000000000000     
           6           1   6.2250000000000014        8.3000000000000025        10.375000000000004     
           7           1   4.1500000000000004        8.3000000000000025        8.3000000000000025     
           8           1   4.1500000000000004        6.2250000000000014        2.0750000000000011     
           9           1   10.375000000000004        4.1500000000000004        6.2250000000000014     
          10           1   8.3000000000000025        4.1500000000000004        4.1500000000000004     
          11           1   6.2250000000000014        4.1500000000000004        2.0750000000000011     
          12           1   10.375000000000004        2.0750000000000011        4.1500000000000004     
          13           1   8.3000000000000025        2.0750000000000011        2.0750000000000011     
          14           1   10.375000000000004        0.0000000000000000        2.0750000000000011     
          15           1   2.0750000000000011        6.2250000000000014        4.1500000000000004     
          16           1   0.0000000000000000        6.2250000000000014        2.0750000000000011     
          17           1   10.375000000000004        4.1500000000000004        10.375000000000004     
          18           1   8.3000000000000025        4.1500000000000004        8.3000000000000025     
          19           1   6.2250000000000014        4.1500000000000004        6.2250000000000014     
          20           1   4.1500000000000004        4.1500000000000004        4.1500000000000004     
          21           1   2.0750000000000011        4.1500000000000004        2.0750000000000011     
          22           1   4.1500000000000004        6.2250000000000014        6.2250000000000014     
          23           1   6.2250000000000014        6.2250000000000014        8.3000000000000025     
          24           1   8.3000000000000025        6.2250000000000014        10.375000000000004     
          25           1   10.375000000000004        6.2250000000000014        0.0000000000000000     
          26           1   0.0000000000000000        8.3000000000000025        4.1500000000000004     
          27           1   2.0750000000000011        8.3000000000000025        6.2250000000000014     
          28           1   10.375000000000004        8.3000000000000025        6.2250000000000014     
          29           1   8.3000000000000025        8.3000000000000025        4.1500000000000004     
          30           1   6.2250000000000014        8.3000000000000025        2.0750000000000011     
          31           1   10.375000000000004        6.2250000000000014        4.1500000000000004     
          32           1   8.3000000000000025        6.2250000000000014        2.0750000000000011     
          33           1   10.375000000000004        4.1500000000000004        2.0750000000000011     
          34           1   10.375000000000004        10.375000000000004        0.0000000000000000     
          35           1   10.375000000000004        10.375000000000004        4.1500000000000004     
          36           1   8.3000000000000025        10.375000000000004        2.0750000000000011     
          37           1   10.375000000000004        8.3000000000000025        2.0750000000000011     
          38           1   10.375000000000004        10.375000000000004        8.3000000000000025     
          39           1   8.3000000000000025        10.375000000000004        6.2250000000000014     
          40           1   6.2250000000000014        10.375000000000004        4.1500000000000004     
          41           1   4.1500000000000004        10.375000000000004        2.0750000000000011     
          42           1   8.3000000000000025        8.3000000000000025        8.3000000000000025     
          43           1   6.2250000000000014        8.3000000000000025        6.2250000000000014     
          44           1   4.1500000000000004        8.3000000000000025        4.1500000000000004     
          45           1   2.0750000000000011        8.3000000000000025        2.0750000000000011     
          46           1   10.375000000000004        6.2250000000000014        8.3000000000000025     
          47           1   8.3000000000000025        6.2250000000000014        6.2250000000000014     
          48           1   6.2250000000000014        6.2250000000000014        4.1500000000000004     
          49           1   10.375000000000004        8.3000000000000025        10.375000000000004     
          50           1   0.0000000000000000        10.375000000000004        2.0750000000000011     
          51           1   2.0750000000000011        10.375000000000004        4.1500000000000004     
          52           1   4.1500000000000004        10.375000000000004        6.2250000000000014     
          53           1   6.2250000000000014        10.375000000000004        8.3000000000000025     
          54           1   8.3000000000000025        10.375000000000004        10.375000000000004     
          55           1   0.0000000000000000        6.2250000000000014        10.375000000000004     
          56           1   4.1500000000000004        4.1500000000000004        0.0000000000000000     
          57           1   2.0750000000000011        4.1500000000000004        10.375000000000004     
          58           1   0.0000000000000000        4.1500000000000004        8.3000000000000025     
          59           1   6.2250000000000014        2.0750000000000011        0.0000000000000000     
          60           1   4.1500000000000004        2.0750000000000011        10.375000000000004     
          61           1   2.0750000000000011        2.0750000000000011        8.3000000000000025     
          62           1   10.375000000000004        0.0000000000000000        10.375000000000004     
          63           1   8.3000000000000025        0.0000000000000000        8.3000000000000025     
          64           1   6.2250000000000014        0.0000000000000000        6.2250000000000014     
          65           1   4.1500000000000004        0.0000000000000000        4.1500000000000004     
          66           1   2.0750000000000011        0.0000000000000000        2.0750000000000011     
          67           1   0.0000000000000000        8.3000000000000025        0.0000000000000000     
          68           1   2.0750000000000011        6.2250000000000014        0.0000000000000000     
          69           1   0.0000000000000000        4.1500000000000004        0.0000000000000000     
          70           1   2.0750000000000011        2.0750000000000011        0.0000000000000000     
          71           1   0.0000000000000000        2.0750000000000011        10.375000000000004     
          72           1   4.1500000000000004        0.0000000000000000        0.0000000000000000     
          73           1   2.0750000000000011        0.0000000000000000        10.375000000000004     
          74           1   0.0000000000000000        0.0000000000000000        8.3000000000000025     
          75           1   0.0000000000000000        0.0000000000000000        0.0000000000000000     
          76           1   0.0000000000000000        0.0000000000000000        4.1500000000000004     
          77           1   2.0750000000000011        0.0000000000000000        6.2250000000000014     
          78           1   4.1500000000000004        0.0000000000000000        8.3000000000000025     
          79           1   6.2250000000000014        0.0000000000000000        10.375000000000004     
          80           1   8.3000000000000025        0.0000000000000000        0.0000000000000000     
          81           1   0.0000000000000000        2.0750000000000011        6.2250000000000014     
          82           1   2.0750000000000011        10.375000000000004        0.0000000000000000     
          83           1   0.0000000000000000        10.375000000000004        10.375000000000004     
          84           1   4.1500000000000004        8.3000000000000025        0.0000000000000000     
          85           1   2.0750000000000011        8.3000000000000025        10.375000000000004     
          86           1   0.0000000000000000        8.3000000000000025        8.3000000000000025     
          87           1   6.2250000000000014        6.2250000000000014        0.0000000000000000     
          88           1   4.1500000000000004        6.2250000000000014        10.375000000000004     
          89           1   10.375000000000004        2.0750000000000011        8.3000000000000025     
          90           1   8.3000000000000025        2.0750000000000011        6.2250000000000014     
          91           1   6.2250000000000014        2.0750000000000011        4.1500000000000004     
          92           1   4.1500000000000004        2.0750000000000011        2.0750000000000011     
          93           1   10.375000000000004        0.0000000000000000        6.2250000000000014     
          94           1   8.3000000000000025        0.0000000000000000        4.1500000000000004     
          95           1   6.2250000000000014        0.0000000000000000        2.0750000000000011     
          96           1   0.0000000000000000        4.1500000000000004        4.1500000000000004     
          97           1   10.375000000000004        2.0750000000000011        0.0000000000000000     
          98           1   8.3000000000000025        2.0750000000000011        10.375000000000004     
          99           1   6.2250000000000014        2.0750000000000011        8.3000000000000025     
         100           1   4.1500000000000004        2.0750000000000011        6.2250000000000014     
         101           1   2.0750000000000011        2.0750000000000011        4.1500000000000004     
         102           1   0.0000000000000000        2.0750000000000011        2.0750000000000011     
         103           1   2.0750000000000011        4.1500000000000004        6.2250000000000014     
         104           1   4.1500000000000004        4.1500000000000004        8.3000000000000025     
         105           1   6.2250000000000014        4.1500000000000004        10.375000000000004     
         106           1   8.3000000000000025        4.1500000000000004        0.0000000000000000     
         107           1   0.0000000000000000        6.2250000000000014        6.2250000000000014     
         108           1   2.0750000000000011        6.2250000000000014        8.3000000000000025     
