 # Something
 108 atoms
 1 atom types
 0   12.600000000000005      xlo xhi 
 0   12.600000000000005      ylo yhi 
 0   12.600000000000005      zlo zhi 
   0.0000000000000000        0.0000000000000000        0.0000000000000000      xy xz yz
 Atoms
 
           1           1   6.3000000000000025        10.500000000000005        0.0000000000000000     
           2           1   4.2000000000000011        10.500000000000005        10.500000000000005     
           3           1   2.1000000000000014        10.500000000000005        8.4000000000000039     
           4           1   0.0000000000000000        10.500000000000005        6.3000000000000025     
           5           1   8.4000000000000039        8.4000000000000039        0.0000000000000000     
           6           1   6.3000000000000025        8.4000000000000039        10.500000000000005     
           7           1   4.2000000000000011        8.4000000000000039        8.4000000000000039     
           8           1   4.2000000000000011        6.3000000000000025        2.1000000000000014     
           9           1   10.500000000000005        4.2000000000000011        6.3000000000000025     
          10           1   8.4000000000000039        4.2000000000000011        4.2000000000000011     
          11           1   6.3000000000000025        4.2000000000000011        2.1000000000000014     
          12           1   10.500000000000005        2.1000000000000014        4.2000000000000011     
          13           1   8.4000000000000039        2.1000000000000014        2.1000000000000014     
          14           1   10.500000000000005        0.0000000000000000        2.1000000000000014     
          15           1   2.1000000000000014        6.3000000000000025        4.2000000000000011     
          16           1   0.0000000000000000        6.3000000000000025        2.1000000000000014     
          17           1   10.500000000000005        4.2000000000000011        10.500000000000005     
          18           1   8.4000000000000039        4.2000000000000011        8.4000000000000039     
          19           1   6.3000000000000025        4.2000000000000011        6.3000000000000025     
          20           1   4.2000000000000011        4.2000000000000011        4.2000000000000011     
          21           1   2.1000000000000014        4.2000000000000011        2.1000000000000014     
          22           1   4.2000000000000011        6.3000000000000025        6.3000000000000025     
          23           1   6.3000000000000025        6.3000000000000025        8.4000000000000039     
          24           1   8.4000000000000039        6.3000000000000025        10.500000000000005     
          25           1   10.500000000000005        6.3000000000000025        0.0000000000000000     
          26           1   0.0000000000000000        8.4000000000000039        4.2000000000000011     
          27           1   2.1000000000000014        8.4000000000000039        6.3000000000000025     
          28           1   10.500000000000005        8.4000000000000039        6.3000000000000025     
          29           1   8.4000000000000039        8.4000000000000039        4.2000000000000011     
          30           1   6.3000000000000025        8.4000000000000039        2.1000000000000014     
          31           1   10.500000000000005        6.3000000000000025        4.2000000000000011     
          32           1   8.4000000000000039        6.3000000000000025        2.1000000000000014     
          33           1   10.500000000000005        4.2000000000000011        2.1000000000000014     
          34           1   10.500000000000005        10.500000000000005        0.0000000000000000     
          35           1   10.500000000000005        10.500000000000005        4.2000000000000011     
          36           1   8.4000000000000039        10.500000000000005        2.1000000000000014     
          37           1   10.500000000000005        8.4000000000000039        2.1000000000000014     
          38           1   10.500000000000005        10.500000000000005        8.4000000000000039     
          39           1   8.4000000000000039        10.500000000000005        6.3000000000000025     
          40           1   6.3000000000000025        10.500000000000005        4.2000000000000011     
          41           1   4.2000000000000011        10.500000000000005        2.1000000000000014     
          42           1   8.4000000000000039        8.4000000000000039        8.4000000000000039     
          43           1   6.3000000000000025        8.4000000000000039        6.3000000000000025     
          44           1   4.2000000000000011        8.4000000000000039        4.2000000000000011     
          45           1   2.1000000000000014        8.4000000000000039        2.1000000000000014     
          46           1   10.500000000000005        6.3000000000000025        8.4000000000000039     
          47           1   8.4000000000000039        6.3000000000000025        6.3000000000000025     
          48           1   6.3000000000000025        6.3000000000000025        4.2000000000000011     
          49           1   10.500000000000005        8.4000000000000039        10.500000000000005     
          50           1   0.0000000000000000        10.500000000000005        2.1000000000000014     
          51           1   2.1000000000000014        10.500000000000005        4.2000000000000011     
          52           1   4.2000000000000011        10.500000000000005        6.3000000000000025     
          53           1   6.3000000000000025        10.500000000000005        8.4000000000000039     
          54           1   8.4000000000000039        10.500000000000005        10.500000000000005     
          55           1   0.0000000000000000        6.3000000000000025        10.500000000000005     
          56           1   4.2000000000000011        4.2000000000000011        0.0000000000000000     
          57           1   2.1000000000000014        4.2000000000000011        10.500000000000005     
          58           1   0.0000000000000000        4.2000000000000011        8.4000000000000039     
          59           1   6.3000000000000025        2.1000000000000014        0.0000000000000000     
          60           1   4.2000000000000011        2.1000000000000014        10.500000000000005     
          61           1   2.1000000000000014        2.1000000000000014        8.4000000000000039     
          62           1   10.500000000000005        0.0000000000000000        10.500000000000005     
          63           1   8.4000000000000039        0.0000000000000000        8.4000000000000039     
          64           1   6.3000000000000025        0.0000000000000000        6.3000000000000025     
          65           1   4.2000000000000011        0.0000000000000000        4.2000000000000011     
          66           1   2.1000000000000014        0.0000000000000000        2.1000000000000014     
          67           1   0.0000000000000000        8.4000000000000039        0.0000000000000000     
          68           1   2.1000000000000014        6.3000000000000025        0.0000000000000000     
          69           1   0.0000000000000000        4.2000000000000011        0.0000000000000000     
          70           1   2.1000000000000014        2.1000000000000014        0.0000000000000000     
          71           1   0.0000000000000000        2.1000000000000014        10.500000000000005     
          72           1   4.2000000000000011        0.0000000000000000        0.0000000000000000     
          73           1   2.1000000000000014        0.0000000000000000        10.500000000000005     
          74           1   0.0000000000000000        0.0000000000000000        8.4000000000000039     
          75           1   0.0000000000000000        0.0000000000000000        0.0000000000000000     
          76           1   0.0000000000000000        0.0000000000000000        4.2000000000000011     
          77           1   2.1000000000000014        0.0000000000000000        6.3000000000000025     
          78           1   4.2000000000000011        0.0000000000000000        8.4000000000000039     
          79           1   6.3000000000000025        0.0000000000000000        10.500000000000005     
          80           1   8.4000000000000039        0.0000000000000000        0.0000000000000000     
          81           1   0.0000000000000000        2.1000000000000014        6.3000000000000025     
          82           1   2.1000000000000014        10.500000000000005        0.0000000000000000     
          83           1   0.0000000000000000        10.500000000000005        10.500000000000005     
          84           1   4.2000000000000011        8.4000000000000039        0.0000000000000000     
          85           1   2.1000000000000014        8.4000000000000039        10.500000000000005     
          86           1   0.0000000000000000        8.4000000000000039        8.4000000000000039     
          87           1   6.3000000000000025        6.3000000000000025        0.0000000000000000     
          88           1   4.2000000000000011        6.3000000000000025        10.500000000000005     
          89           1   10.500000000000005        2.1000000000000014        8.4000000000000039     
          90           1   8.4000000000000039        2.1000000000000014        6.3000000000000025     
          91           1   6.3000000000000025        2.1000000000000014        4.2000000000000011     
          92           1   4.2000000000000011        2.1000000000000014        2.1000000000000014     
          93           1   10.500000000000005        0.0000000000000000        6.3000000000000025     
          94           1   8.4000000000000039        0.0000000000000000        4.2000000000000011     
          95           1   6.3000000000000025        0.0000000000000000        2.1000000000000014     
          96           1   0.0000000000000000        4.2000000000000011        4.2000000000000011     
          97           1   10.500000000000005        2.1000000000000014        0.0000000000000000     
          98           1   8.4000000000000039        2.1000000000000014        10.500000000000005     
          99           1   6.3000000000000025        2.1000000000000014        8.4000000000000039     
         100           1   4.2000000000000011        2.1000000000000014        6.3000000000000025     
         101           1   2.1000000000000014        2.1000000000000014        4.2000000000000011     
         102           1   0.0000000000000000        2.1000000000000014        2.1000000000000014     
         103           1   2.1000000000000014        4.2000000000000011        6.3000000000000025     
         104           1   4.2000000000000011        4.2000000000000011        8.4000000000000039     
         105           1   6.3000000000000025        4.2000000000000011        10.500000000000005     
         106           1   8.4000000000000039        4.2000000000000011        0.0000000000000000     
         107           1   0.0000000000000000        6.3000000000000025        6.3000000000000025     
         108           1   2.1000000000000014        6.3000000000000025        8.4000000000000039     
