LAMMPS (29 Sep 2021 - Update 1)
Reading data file ...
  triclinic box = (0.0000000 0.0000000 0.0000000) to (10.480000 9.0759462 10.140000) with tilt (0.0000000 0.0000000 0.0000000)
  1 by 1 by 1 MPI processor grid
  reading atoms ...
  64 atoms
  read_data CPU = 0.001 seconds
Neighbor list info ...
  update every 1 steps, delay 0 steps, check yes
  max neighbors/atom: 2000, page size: 100000
  master list distance cutoff = 7
  ghost atom cutoff = 7
  binsize = 3.5, bins = 3 3 3
  1 neighbor lists, perpetual/occasional/extra = 1 0 0
  (1) pair mlip, perpetual
      attributes: full, newton on
      pair build: full/bin/atomonly
      stencil: full/bin/3d
      bin: standard
Setting up Verlet run ...
  Unit style    : metal
  Current step  : 0
  Time step     : 0.001
Per MPI rank memory allocation (min/avg/max) = 3.089 | 3.089 | 3.089 Mbytes
Step Time Temp Volume Press 
       0            0         1380    964.47539     18607.47 
       1        0.001    1378.9869    964.47539    18641.224 
       2        0.002    1375.9585    964.47539    18732.642 
       3        0.003    1370.9411    964.47539     18877.17 
       4        0.004    1363.9682    964.47539    19079.953 
       5        0.005    1355.0796    964.47539    19344.035 
       6        0.006    1344.3222    964.47539    19669.196 
       7        0.007    1331.7505    964.47539    20055.169 
       8        0.008    1317.4265    964.47539    20500.436 
       9        0.009    1301.4191    964.47539    21003.335 
      10         0.01    1283.8044    964.47539    21561.953 
Loop time of 0.208712 on 1 procs for 10 steps with 64 atoms

Performance: 4.140 ns/day, 5.798 hours/ns, 47.913 timesteps/s
100.0% CPU use with 1 MPI tasks x no OpenMP threads

MPI task timing breakdown:
Section |  min time  |  avg time  |  max time  |%varavg| %total
---------------------------------------------------------------
Pair    | 0.20861    | 0.20861    | 0.20861    |   0.0 | 99.95
Neigh   | 0          | 0          | 0          |   0.0 |  0.00
Comm    | 3.0882e-05 | 3.0882e-05 | 3.0882e-05 |   0.0 |  0.01
Output  | 3.564e-05  | 3.564e-05  | 3.564e-05  |   0.0 |  0.02
Modify  | 2.19e-05   | 2.19e-05   | 2.19e-05   |   0.0 |  0.01
Other   |            | 9.949e-06  |            |       |  0.00

Nlocal:        64.0000 ave          64 max          64 min
Histogram: 1 0 0 0 0 0 0 0 0 0
Nghost:        886.000 ave         886 max         886 min
Histogram: 1 0 0 0 0 0 0 0 0 0
Neighs:         0.00000 ave           0 max           0 min
Histogram: 1 0 0 0 0 0 0 0 0 0
FullNghs:      6272.00 ave        6272 max        6272 min
Histogram: 1 0 0 0 0 0 0 0 0 0

Total # of neighbors = 6272
Ave neighs/atom = 98.000000
Neighbor list builds = 0
Dangerous builds = 0
Setting up Verlet run ...
  Unit style    : metal
  Current step  : 10
  Time step     : 0.001
Per MPI rank memory allocation (min/avg/max) = 3.089 | 3.089 | 3.089 Mbytes
Step Time Temp Volume Press 
      10         0.01    1283.8044    964.47539    21561.953 
      11        0.011    1264.6655    964.47539     22173.96 
      12        0.012    1244.0918    964.47539    22836.673 
      13        0.013     1222.179    964.47539    23547.336 
      14        0.014    1199.0289    964.47539    24303.059 
      15        0.015    1174.7486    964.47539     25100.54 
      16        0.016    1149.4504    964.47539    25936.398 
      17        0.017    1123.2511    964.47539    26806.986 
      18        0.018    1096.2714    964.47539    27708.611 
      19        0.019    1068.6353    964.47539     28637.04 
      20         0.02    1040.4691    964.47539    29586.383 
      21        0.021    1011.9006    964.47539     30554.01 
      22        0.022    983.05914    964.47539    31533.707 
      23        0.023    954.07414    964.47539    32521.916 
      24        0.024    925.07448    964.47539    33513.501 
      25        0.025    896.18773    964.47539    34505.316 
      26        0.026    867.53925    964.47539    35492.568 
      27        0.027    839.25082    964.47539     36469.84 
      28        0.028    811.44012    964.47539    37434.409 
      29        0.029    784.22004    964.47539     38382.27 
      30         0.03    757.69749    964.47539    39310.496 
      31        0.031    731.97281    964.47539    40215.969 
      32        0.032    707.13886    964.47539    41095.921 
      33        0.033    683.28035    964.47539    41947.784 
      34        0.034    660.47305    964.47539    42767.847 
      35        0.035    638.78324    964.47539    43553.799 
      36        0.036     618.2675    964.47539    44303.838 
      37        0.037    598.97246    964.47539     45016.11 
      38        0.038    580.93452    964.47539    45688.695 
      39        0.039    564.17984    964.47539    46320.063 
      40         0.04    548.72449    964.47539    46910.893 
      41        0.041    534.57466    964.47539    47460.214 
      42        0.042    521.72679    964.47539    47967.284 
      43        0.043    510.16793    964.47539    48431.321 
      44        0.044     499.8763    964.47539    48853.662 
      45        0.045    490.82194    964.47539    49234.566 
      46        0.046    482.96725    964.47539    49575.007 
      47        0.047    476.26774    964.47539    49876.512 
      48        0.048    470.67284    964.47539    50139.672 
      49        0.049     466.1264    964.47539    50364.049 
      50         0.05    462.56762    964.47539     50552.76 
      51        0.051      459.932    964.47539    50707.326 
      52        0.052    458.15197    964.47539    50828.991 
      53        0.053    457.15777    964.47539    50920.577 
      54        0.054    456.87837    964.47539    50984.382 
      55        0.055    457.24227    964.47539    51023.773 
      56        0.056    458.17815    964.47539    51040.981 
      57        0.057    459.61518    964.47539    51035.977 
      58        0.058    461.48362    964.47539    51010.322 
      59        0.059    463.71577    964.47539    50966.397 
      60         0.06     466.2462    964.47539    50908.609 
      61        0.061    469.01199    964.47539    50838.157 
      62        0.062    471.95334    964.47539     50756.63 
      63        0.063    475.01379    964.47539    50662.337 
      64        0.064    478.14035    964.47539    50560.016 
      65        0.065    481.28405    964.47539    50453.919 
      66        0.066    484.40019    964.47539    50345.606 
      67        0.067    487.44759    964.47539    50240.608 
      68        0.068    490.38915    964.47539    50136.222 
      69        0.069    493.19288    964.47539    50033.066 
      70         0.07    495.83133    964.47539    49931.582 
      71        0.071    498.28145    964.47539    49833.938 
      72        0.072    500.52458    964.47539    49741.446 
      73        0.073    502.54611    964.47539    49653.244 
      74        0.074    504.33548    964.47539    49570.786 
      75        0.075     505.8862    964.47539    49494.032 
      76        0.076    507.19556    964.47539    49423.932 
      77        0.077    508.26443    964.47539    49359.969 
      78        0.078      509.097    964.47539    49300.962 
      79        0.079    509.70065    964.47539    49248.108 
      80         0.08    510.08583    964.47539    49201.086 
      81        0.081    510.26553    964.47539    49157.561 
      82        0.082    510.25504    964.47539    49120.086 
      83        0.083     510.0721    964.47539    49088.423 
      84        0.084    509.73633    964.47539    49061.841 
      85        0.085    509.26863    964.47539    49040.194 
      86        0.086    508.69113    964.47539    49022.114 
      87        0.087    508.02707    964.47539    49004.984 
      88        0.088    507.30021    964.47539    48990.004 
      89        0.089    506.53463    964.47539    48974.761 
      90         0.09    505.75427    964.47539    48959.382 
      91        0.091    504.98312    964.47539    48944.108 
      92        0.092    504.24475    964.47539    48927.785 
      93        0.093    503.56164    964.47539    48908.776 
      94        0.094    502.95511    964.47539     48887.99 
      95        0.095    502.44538    964.47539    48865.268 
      96        0.096    502.05138    964.47539    48839.508 
      97        0.097    501.79036    964.47539    48810.567 
      98        0.098     501.6776    964.47539    48778.612 
      99        0.099    501.72629    964.47539    48742.797 
     100          0.1    501.94726    964.47539    48699.363 
Loop time of 1.89209 on 1 procs for 90 steps with 64 atoms

Performance: 4.110 ns/day, 5.840 hours/ns, 47.567 timesteps/s
100.0% CPU use with 1 MPI tasks x no OpenMP threads

MPI task timing breakdown:
Section |  min time  |  avg time  |  max time  |%varavg| %total
---------------------------------------------------------------
Pair    | 1.891      | 1.891      | 1.891      |   0.0 | 99.94
Neigh   | 0.00022598 | 0.00022598 | 0.00022598 |   0.0 |  0.01
Comm    | 0.00028678 | 0.00028678 | 0.00028678 |   0.0 |  0.02
Output  | 0.00031026 | 0.00031026 | 0.00031026 |   0.0 |  0.02
Modify  | 0.00015783 | 0.00015783 | 0.00015783 |   0.0 |  0.01
Other   |            | 7.156e-05  |            |       |  0.00

Nlocal:        64.0000 ave          64 max          64 min
Histogram: 1 0 0 0 0 0 0 0 0 0
Nghost:        886.000 ave         886 max         886 min
Histogram: 1 0 0 0 0 0 0 0 0 0
Neighs:         0.00000 ave           0 max           0 min
Histogram: 1 0 0 0 0 0 0 0 0 0
FullNghs:      6166.00 ave        6166 max        6166 min
Histogram: 1 0 0 0 0 0 0 0 0 0

Total # of neighbors = 6166
Ave neighs/atom = 96.343750
Neighbor list builds = 1
Dangerous builds = 0
Setting up Verlet run ...
  Unit style    : metal
  Current step  : 100
  Time step     : 0.001
Per MPI rank memory allocation (min/avg/max) = 3.089 | 3.089 | 3.089 Mbytes
Step Time Temp Volume Press 
     100          0.1    501.94726    964.47539    48699.363 
     110         0.11    514.52954    964.47539    48006.849 
     120         0.12    541.84188    964.47539    47000.851 
     130         0.13    570.51698    964.47539    46064.155 
     140         0.14    591.04087    964.47539    45465.296 
     150         0.15    607.92095    964.47539    45091.137 
     160         0.16    629.76209    964.47539    44715.622 
     170         0.17    655.61426    964.47539    44251.466 
     180         0.18    680.85367    964.47539    43756.591 
     190         0.19    705.61434    964.47539    43239.752 
     200          0.2     730.3542    964.47539    42699.422 
     210         0.21    750.70868    964.47539    42384.619 
     220         0.22    760.48464    964.47539    42454.385 
     230         0.23    758.28369    964.47539     42839.31 
     240         0.24    748.85415    964.47539    43424.363 
     250         0.25    736.69203    964.47539    44135.216 
     260         0.26    722.21903    964.47539    44941.217 
     270         0.27    705.48531    964.47539    45838.078 
     280         0.28      686.927    964.47539    46816.631 
     290         0.29    665.34826    964.47539    47834.189 
     300          0.3    643.57653    964.47539    48710.978 
     310         0.31    633.16798    964.47539    49192.458 
     320         0.32    640.44559    964.47539    49071.648 
     330         0.33    656.40501    964.47539    48619.831 
     340         0.34    669.82376    964.47539    48232.628 
     350         0.35    680.06176    964.47539    47884.803 
     360         0.36    697.89965    964.47539    47229.046 
     370         0.37    733.20231    964.47539    46104.732 
     380         0.38    773.20832    964.47539    44929.981 
     390         0.39    790.01618    964.47539    44460.034 
     400          0.4    773.01761    964.47539    45010.104 
     410         0.41    741.12635    964.47539    45959.159 
     420         0.42    725.17447    964.47539    46384.897 
     430         0.43    736.85922    964.47539     45826.43 
     440         0.44    758.20515    964.47539    44888.733 
     450         0.45    761.46635    964.47539    44464.782 
     460         0.46    731.79196    964.47539    45017.305 
     470         0.47    677.18888    964.47539    46266.786 
     480         0.48    624.57059    964.47539    47408.144 
     490         0.49    600.49987    964.47539    47625.996 
     500          0.5    609.06891    964.47539    46817.545 
     510         0.51    630.82939    964.47539    45553.242 
     520         0.52    644.58812    964.47539    44564.502 
     530         0.53    643.86165    964.47539    44111.553 
     540         0.54    632.99852    964.47539    44102.759 
     550         0.55     620.0836    964.47539    44180.867 
     560         0.56    615.61263    964.47539     43985.06 
     570         0.57    626.57431    964.47539    43356.996 
     580         0.58    646.66588    964.47539    42487.797 
     590         0.59    658.40108    964.47539     41960.46 
     600          0.6    648.43146    964.47539    42215.164 
     610         0.61    620.89585    964.47539    43024.943 
     620         0.62    596.75769    964.47539    43716.531 
     630         0.63    597.94064    964.47539    43663.653 
     640         0.64    626.83553    964.47539    42736.407 
     650         0.65     663.6477    964.47539    41454.614 
     660         0.66    688.11396    964.47539     40437.95 
     670         0.67    696.62936    964.47539    39889.735 
     680         0.68    693.88704    964.47539    39686.854 
     690         0.69    681.37972    964.47539    39816.237 
     700          0.7    662.36643    964.47539    40215.566 
     710         0.71    644.86312    964.47539    40566.251 
     720         0.72    634.38099    964.47539    40691.742 
     730         0.73    627.71114    964.47539    40735.279 
     740         0.74    616.85555    964.47539     40974.07 
     750         0.75    599.98263    964.47539    41541.463 
     760         0.76     584.7329    964.47539    42209.335 
     770         0.77    579.51271    964.47539    42759.588 
     780         0.78    585.25407    964.47539    43072.633 
     790         0.79     597.3776    964.47539    43264.874 
     800          0.8    614.19077    964.47539    43294.468 
     810         0.81    639.68834    964.47539    43122.883 
     820         0.82    674.87815    964.47539    42790.301 
     830         0.83    712.71129    964.47539    42506.023 
     840         0.84    739.38079    964.47539    42637.639 
     850         0.85    738.81843    964.47539    43634.108 
     860         0.86    707.38649    964.47539    45359.562 
     870         0.87    670.64562    964.47539    47032.588 
     880         0.88    666.40721    964.47539    47657.034 
     890         0.89    702.08168    964.47539    47110.634 
     900          0.9    750.04269    964.47539    46148.512 
     910         0.91    784.49329    964.47539    45434.485 
     920         0.92    801.20273    964.47539    45139.742 
     930         0.93      804.399    964.47539    45393.555 
     940         0.94    788.49457    964.47539     46357.42 
     950         0.95    747.44085    964.47539    48058.325 
     960         0.96    698.05599    964.47539    49881.675 
     970         0.97    667.47333    964.47539    50967.457 
     980         0.98    661.21368    964.47539    51116.104 
     990         0.99     670.2332    964.47539    50509.858 
    1000            1    693.88066    964.47539    49213.848 
Loop time of 18.7579 on 1 procs for 900 steps with 64 atoms

Performance: 4.145 ns/day, 5.789 hours/ns, 47.980 timesteps/s
100.0% CPU use with 1 MPI tasks x no OpenMP threads

MPI task timing breakdown:
Section |  min time  |  avg time  |  max time  |%varavg| %total
---------------------------------------------------------------
Pair    | 18.749     | 18.749     | 18.749     |   0.0 | 99.95
Neigh   | 0.0036267  | 0.0036267  | 0.0036267  |   0.0 |  0.02
Comm    | 0.0029304  | 0.0029304  | 0.0029304  |   0.0 |  0.02
Output  | 0.00040737 | 0.00040737 | 0.00040737 |   0.0 |  0.00
Modify  | 0.0015587  | 0.0015587  | 0.0015587  |   0.0 |  0.01
Other   |            | 0.0006675  |            |       |  0.00

Nlocal:        64.0000 ave          64 max          64 min
Histogram: 1 0 0 0 0 0 0 0 0 0
Nghost:        886.000 ave         886 max         886 min
Histogram: 1 0 0 0 0 0 0 0 0 0
Neighs:         0.00000 ave           0 max           0 min
Histogram: 1 0 0 0 0 0 0 0 0 0
FullNghs:      6196.00 ave        6196 max        6196 min
Histogram: 1 0 0 0 0 0 0 0 0 0

Total # of neighbors = 6196
Ave neighs/atom = 96.812500
Neighbor list builds = 16
Dangerous builds = 0
Setting up Verlet run ...
  Unit style    : metal
  Current step  : 1000
  Time step     : 0.001
Per MPI rank memory allocation (min/avg/max) = 3.089 | 3.089 | 3.089 Mbytes
Step Time Temp Volume Press 
    1000            1    693.88066    964.47539    49213.848 
    1100          1.1    673.34901    964.47539    43657.792 
    1200          1.2    685.81463    964.47539    42303.105 
    1300          1.3    598.98823    964.47539    41113.756 
    1400          1.4    621.04467    964.47539    36023.977 
    1500          1.5    677.83592    964.47539    39204.752 
    1600          1.6    725.20865    964.47539     44259.79 
    1700          1.7    726.47751    964.47539    44214.189 
    1800          1.8    646.17079    964.47539    46154.728 
    1900          1.9     686.1652    964.47539    47302.333 
    2000            2    806.26368    964.47539    48727.193 
    2100          2.1    630.14843    964.47539    49391.136 
    2200          2.2    619.26821    964.47539    45129.617 
    2300          2.3    763.11028    964.47539    41795.604 
    2400          2.4    765.52204    964.47539    40704.381 
    2500          2.5    722.05934    964.47539    46196.047 
    2600          2.6    801.82928    964.47539    47919.863 
    2700          2.7    644.32534    964.47539    48725.786 
    2800          2.8    675.90723    964.47539    44003.124 
    2900          2.9    592.00664    964.47539    43735.613 
    3000            3    746.99518    964.47539    41611.109 
    3100          3.1    830.33534    964.47539    49092.182 
    3200          3.2     814.0557    964.47539    48109.936 
    3300          3.3    662.15673    964.47539    47165.229 
    3400          3.4    659.86403    964.47539    46285.115 
    3500          3.5    699.70456    964.47539    43356.089 
    3600          3.6    636.30152    964.47539    43149.122 
    3700          3.7    655.74825    964.47539    36576.666 
    3800          3.8    605.86793    964.47539    40682.313 
    3900          3.9     773.9687    964.47539    40988.615 
    4000            4    682.94735    964.47539    45807.789 
    4100          4.1    720.20308    964.47539     44932.96 
    4200          4.2    607.36042    964.47539    46897.637 
    4300          4.3    748.22509    964.47539    35965.767 
    4400          4.4    630.93449    964.47539    36945.322 
    4500          4.5    626.96382    964.47539    42985.217 
    4600          4.6    596.17166    964.47539    49813.718 
    4700          4.7    695.75552    964.47539    48539.825 
    4800          4.8    698.73849    964.47539    48719.502 
    4900          4.9    729.40279    964.47539    46179.219 
    5000            5    699.40164    964.47539    41821.959 
    5100          5.1    538.41726    964.47539    43003.636 
    5200          5.2    624.18783    964.47539    41384.084 
    5300          5.3    769.98203    964.47539    43613.568 
    5400          5.4    713.71359    964.47539    49313.079 
    5500          5.5    725.67052    964.47539    46562.305 
    5600          5.6    716.03136    964.47539    43926.471 
    5700          5.7    715.98998    964.47539    39436.531 
    5800          5.8    519.27883    964.47539    42281.847 
    5900          5.9    695.62255    964.47539    38859.009 
    6000            6    709.06865    964.47539    47593.284 
    6100          6.1    776.03055    964.47539    46146.464 
    6200          6.2    790.29327    964.47539    45015.766 
    6300          6.3    651.69225    964.47539    44150.157 
    6400          6.4    569.85574    964.47539    42203.624 
    6500          6.5    616.15414    964.47539     44124.63 
    6600          6.6    804.11245    964.47539    40201.968 
    6700          6.7    647.25141    964.47539    44515.323 
    6800          6.8    717.52106    964.47539    44498.365 
    6900          6.9    766.13224    964.47539     47582.23 
    7000            7    702.80458    964.47539     51021.88 
    7100          7.1    659.41266    964.47539    44838.988 
    7200          7.2    698.65987    964.47539    40515.656 
    7300          7.3    583.52922    964.47539    44651.524 
    7400          7.4    754.21144    964.47539    46409.109 
    7500          7.5    669.64973    964.47539    48585.535 
    7600          7.6    619.68023    964.47539    48726.735 
    7700          7.7    713.08342    964.47539    45020.023 
    7800          7.8    626.55645    964.47539    45847.959 
    7900          7.9    657.32797    964.47539    40810.634 
    8000            8      687.024    964.47539    39401.608 
    8100          8.1    651.79169    964.47539    46155.981 
    8200          8.2    845.05972    964.47539    44771.101 
    8300          8.3    688.59893    964.47539      47985.1 
    8400          8.4    609.83309    964.47539    44664.459 
    8500          8.5     641.4726    964.47539    40223.798 
    8600          8.6    661.95321    964.47539    40142.194 
    8700          8.7    723.03271    964.47539    46004.304 
    8800          8.8    800.71801    964.47539    48329.155 
    8900          8.9    644.91506    964.47539    51190.625 
    9000            9     702.4367    964.47539    42199.789 
    9100          9.1      548.267    964.47539    44999.464 
    9200          9.2    670.55525    964.47539    42509.729 
    9300          9.3    677.09509    964.47539     44238.24 
    9400          9.4    656.90044    964.47539    45569.346 
    9500          9.5    648.53226    964.47539    46876.286 
    9600          9.6    730.75437    964.47539    44291.758 
    9700          9.7    590.20226    964.47539    44138.969 
    9800          9.8    531.15286    964.47539    41473.799 
    9900          9.9    567.77777    964.47539     42794.36 
   10000           10    717.00398    964.47539    43529.649 
Loop time of 198.14 on 1 procs for 9000 steps with 64 atoms

Performance: 3.925 ns/day, 6.115 hours/ns, 45.422 timesteps/s
100.0% CPU use with 1 MPI tasks x no OpenMP threads

MPI task timing breakdown:
Section |  min time  |  avg time  |  max time  |%varavg| %total
---------------------------------------------------------------
Pair    | 198.05     | 198.05     | 198.05     |   0.0 | 99.95
Neigh   | 0.037687   | 0.037687   | 0.037687   |   0.0 |  0.02
Comm    | 0.031311   | 0.031311   | 0.031311   |   0.0 |  0.02
Output  | 0.00054185 | 0.00054185 | 0.00054185 |   0.0 |  0.00
Modify  | 0.016262   | 0.016262   | 0.016262   |   0.0 |  0.01
Other   |            | 0.006935   |            |       |  0.00

Nlocal:        64.0000 ave          64 max          64 min
Histogram: 1 0 0 0 0 0 0 0 0 0
Nghost:        880.000 ave         880 max         880 min
Histogram: 1 0 0 0 0 0 0 0 0 0
Neighs:         0.00000 ave           0 max           0 min
Histogram: 1 0 0 0 0 0 0 0 0 0
FullNghs:      6156.00 ave        6156 max        6156 min
Histogram: 1 0 0 0 0 0 0 0 0 0

Total # of neighbors = 6156
Ave neighs/atom = 96.187500
Neighbor list builds = 158
Dangerous builds = 0
System init for write_data ...
Total wall time: 0:03:39
