ITEM: TIMESTEP
10000
ITEM: NUMBER OF ATOMS
64
ITEM: BOX BOUNDS xy xz yz pp pp pp
0.0000000000000000e+00 1.0479999999999203e+01 0.0000000000000000e+00
0.0000000000000000e+00 9.0759462316602288e+00 0.0000000000000000e+00
0.0000000000000000e+00 1.0140000000000001e+01 0.0000000000000000e+00
ITEM: ATOMS id type x y z
1 1 1.25845 5.55086 3.61437
2 1 1.21056 5.36678 8.65224
3 1 0.111325 7.66357 4.0669
4 1 0.125271 7.52133 9.36462
5 1 6.46796 0.921255 3.67409
6 1 6.58956 0.739957 9.09238
7 1 5.02544 2.98446 4.02133
8 1 5.29735 2.88825 8.80611
9 1 1.28084 0.657314 3.67131
10 1 1.2078 0.938635 8.96383
11 1 0.113547 2.96 3.10255
12 1 10.4421 3.24911 8.56017
13 1 3.94203 0.63946 3.56685
14 1 4.13233 0.633393 8.66381
15 1 2.56808 3.20719 3.5911
16 1 2.64877 3.02218 8.59798
17 1 6.53787 5.45409 3.5156
18 1 6.67004 5.25985 8.98451
19 1 5.1438 7.51869 3.93051
20 1 5.50862 7.47897 8.8522
21 1 9.11933 5.25733 4.02566
22 1 9.08625 5.42322 9.02697
23 1 7.93905 8.00137 3.71908
24 1 8.049 7.55052 8.64109
25 1 3.89866 5.1265 3.75397
26 1 3.90331 5.23002 8.99811
27 1 2.85655 7.45575 4.10309
28 1 2.64804 7.45093 8.92491
29 1 9.09232 0.938476 4.1571
30 1 9.20105 0.771126 8.98096
31 1 7.66178 3.12414 3.86878
32 1 7.98615 2.98268 9.30081
33 1 4.97262 1.74564 1.48165
34 1 5.30712 1.24811 6.47324
35 1 3.77523 3.80349 0.936386
36 1 3.85125 3.71471 6.06133
37 1 2.5121 6.03887 1.51396
38 1 2.63507 5.82634 6.62584
39 1 1.55646 8.13447 1.31423
40 1 1.43031 8.33374 6.6749
41 1 10.3099 1.62294 0.991127
42 1 0.0691443 1.5145 6.31774
43 1 2.31395 1.3857 1.36802
44 1 2.56755 1.4182 6.05582
45 1 1.34991 3.7348 0.779904
46 1 0.99496 3.68204 5.69882
47 1 10.4303 6.08812 1.55915
48 1 0.0883381 5.94435 6.41893
49 1 9.15357 3.70986 1.3006
50 1 9.16065 3.82373 6.37171
51 1 7.85869 6.16882 1.06664
52 1 7.96216 6.16712 6.13068
53 1 6.60893 8.27496 1.33935
54 1 6.55871 8.24734 6.02646
55 1 9.47385 8.39998 1.35024
56 1 9.22325 8.34917 6.27298
57 1 7.9275 1.30646 1.47099
58 1 7.76985 1.53404 6.6465
59 1 6.37612 3.92627 1.5347
60 1 6.45626 3.55349 6.56197
61 1 5.24895 6.17494 1.15047
62 1 5.24744 5.8685 6.67092
63 1 4.02625 8.27564 1.32139
64 1 3.94039 8.44657 6.2004
