LAMMPS data file via write_data, version 29 Sep 2021, timestep = 10000

64 atoms
1 atom types

0 10.519999999999747 xlo xhi
0 9.110587247812074 ylo yhi
0 9.98 zlo zhi
0 0 0 xy xz yz

Masses

1 65.38

Atoms # atomic

1 1 1.329356177344763 5.447419330314418 3.717247731480774 0 0 0
2 1 1.2064806250834785 5.1097569818307695 8.783061145297264 0 0 0
3 1 0.3439052710102651 7.77821517199395 3.393969463626289 0 0 0
4 1 0.10439523592040234 7.440510420394944 9.039155188473384 0 0 0
5 1 6.806971690308897 0.8992505008563059 3.555683984735732 0 0 0
6 1 6.5105683073355465 0.7582368472731119 8.70210236835995 0 0 0
7 1 5.2859485070667 3.18744758224285 3.494802029428587 0 0 0
8 1 5.2162613276926075 3.076605400294277 8.504143805594836 0 0 0
9 1 1.3678240923613256 0.9927859749444352 3.6602527388725505 0 0 0
10 1 1.1918340872584887 0.8245454499758792 8.868221628400462 0 0 0
11 1 0.03039130218134869 2.965802221137548 3.720497048182075 0 0 0
12 1 10.354131406766006 3.040637554993812 8.890010330004452 -1 0 0
13 1 3.770256106622438 0.7739563659317996 3.6774960739221765 0 0 0
14 1 3.8426685528036573 0.7413859071871107 8.723703840298418 0 0 0
15 1 2.6889368033230996 3.134467446176563 3.530736519824876 0 0 0
16 1 2.4904447410235346 3.0609257033265282 8.700105820468918 0 0 0
17 1 6.515255595153882 5.464257315032109 3.8744617288712555 0 0 0
18 1 6.522247688132858 5.410324530526833 8.921076228080812 0 0 0
19 1 5.202393560401858 7.7960704349456496 3.796730167489164 0 0 0
20 1 5.303011359853653 7.518032939362927 8.628742904106275 0 0 0
21 1 9.200969716423685 5.214164620976212 3.771114546174141 0 0 0
22 1 9.163142334599472 5.3142587964042916 8.443650918514706 0 0 0
23 1 8.108721419145667 7.570528290226772 3.6732349750744446 0 0 0
24 1 7.907758090129185 7.5788748240750206 8.415635692533877 0 0 0
25 1 3.954530824297334 5.312719937577264 4.104556309482623 0 0 0
26 1 3.813820704875434 5.310515883900619 9.026967160504944 0 0 0
27 1 2.7205499708496914 7.622270385222922 4.088184227493273 0 0 0
28 1 2.4218368202057055 7.598654786946389 8.803278999783563 0 0 0
29 1 9.24312108624972 0.8408091768409602 4.050513486410303 0 0 0
30 1 9.194121390965012 0.8438142371234394 8.687229309302772 0 0 0
31 1 8.050808830304865 3.1069727487479026 3.833123916200662 0 0 0
32 1 7.920608501189244 2.881095628536796 8.593886880895024 0 0 0
33 1 5.188774801419571 1.5526369316420827 0.9507700484863475 0 0 0
34 1 5.222106084466729 1.6470920318038904 5.780857224821155 0 0 0
35 1 4.000380255207822 3.683742249166357 1.067096314933034 0 0 0
36 1 3.6802002930350226 3.8718936030929143 6.599908426157891 0 0 0
37 1 2.843409316681426 6.1199282844242004 1.3223633193468722 0 0 0
38 1 2.4947193164616874 6.053775753485543 6.572608182084436 0 0 0
39 1 1.4842342580133019 8.293281311058166 1.081310630121315 0 0 0
40 1 1.1831779250370926 8.360170093937134 6.474804942380148 0 0 0
41 1 10.40364176780207 1.247914457590502 1.5497138394761243 -1 0 0
42 1 0.2122031417196579 1.53679322413698 6.211917824714916 0 0 0
43 1 2.59694875176525 1.4735830017563558 1.263788119307556 0 0 0
44 1 2.6009773779642518 1.367145812014177 6.258237621357013 0 0 0
45 1 1.2451907244863023 3.701356684994332 1.6434236426406952 0 0 0
46 1 1.3369871008909169 3.8648673021373643 5.935861052383607 0 0 0
47 1 10.447580758206128 6.144878155319638 1.0918161507499775 -1 0 0
48 1 10.39750087441359 6.207725171106974 6.021128499584246 -1 0 0
49 1 9.21056072201067 3.721732641646343 1.4445839682715549 0 0 0
50 1 9.211191135900986 3.765250500030236 6.291562811888452 0 0 0
51 1 7.99141810666094 5.854642519676741 1.3260584958483193 0 0 0
52 1 7.727423140072176 6.3432527966826235 6.176627465826779 0 0 0
53 1 6.753566546926108 8.285140955841669 1.3805972349544886 0 0 0
54 1 6.418704220437704 8.386693350466969 6.075868883384544 0 0 0
55 1 9.1865859606726 8.17626134192132 1.1154315822930265 0 0 0
56 1 9.319446517584954 8.403588282103676 6.021981481306532 0 0 0
57 1 7.838921889335873 1.3188423899299349 1.1471913501125912 0 0 0
58 1 7.865517051335311 1.3985491860657009 6.270489153175323 0 0 0
59 1 6.636206570047578 3.674965053124509 0.9232165471093613 0 0 0
60 1 6.858647534181841 3.6408046161886283 6.1101269181131945 0 0 0
61 1 5.3542215923453 6.115217732542404 1.5340540260384323 0 0 0
62 1 5.119608339019676 6.053613933116868 6.442626935287431 0 0 0
63 1 4.2319104293212195 8.505803156042584 1.0857553763683456 0 0 0
64 1 3.794765369689672 8.152336011620957 6.514644763585611 0 0 0

Velocities

1 0.7768695604976664 0.41551641535711137 3.740196659608926
2 -0.9841422891023812 4.693040268135138 5.063326367169872
3 0.1370468395442389 2.3359227617918625 5.579393694776033
4 3.364637256988069 0.7569769749031969 1.673063506743877
5 2.2582200190065325 -0.030125364550250035 -0.04849399467235739
6 -2.0619128431516733 3.277587664487546 -1.0045327262729442
7 0.04694244415833144 2.379326362135377 1.6148157784773085
8 -4.000783122059179 -2.565137968552265 0.803687602123988
9 2.3155349810568064 -2.978574779570086 1.4220436956062894
10 -1.3469738893867775 2.650405231503195 0.5588297268065161
11 1.1343903536531217 2.009457223048028 0.6201708384844303
12 1.0522850342255219 1.852539850873117 1.817770497626144
13 0.841938109196447 0.7438176208459357 -4.042526976289447
14 4.385206303649269 1.5965172167177732 -4.895643697512691
15 4.171561464832009 0.9756123269136616 -2.121166022928996
16 -1.858493007563496 -3.2960785735869753 -4.287526157527124
17 2.0527479259884207 0.2972500554902311 -1.5565412360823987
18 -1.0406952187840206 -1.3646289389340551 2.13861742100313
19 -1.2958905501056022 2.3982384845584046 1.9045568950287792
20 -1.7682598141103083 -3.069844001660853 -3.731375252205304
21 -0.12320454307586169 -5.500433392738367 1.5414744774362383
22 -0.8817097197982893 -1.5780357037718675 1.2215229013491216
23 -0.5483697135801274 -3.677653266786381 -0.6583875053659032
24 1.810700755305466 -1.1640436218814265 3.8107114507223625
25 -0.6436605415067557 0.461738871211001 0.2188569752046635
26 -3.199557706728141 1.2813192132839317 -3.4702586537544535
27 -6.277457758796282 0.31123646529939086 2.76309927968449
28 -0.3729421112493808 2.890045966357974 0.31676626507161887
29 4.612715356490411 1.7270874072914164 -1.1818960273438417
30 4.054523019538497 -0.63431440826045 -3.5498529647256736
31 1.4966634866515154 -1.7166247924722005 -3.6078320375521824
32 -3.104502063552919 1.756307950145443 2.2226276922081074
33 -2.195456608178601 0.44665922769563776 -7.614532422437044
34 2.788648588654175 0.6337107661373632 -0.22547896669105072
35 -3.0873690980990767 -4.498755338855079 0.0943544223500975
36 -1.7350341358839907 -1.0079358881733267 -5.347898336757558
37 4.442026366007335 1.965733827693334 2.1403619351413217
38 1.6318752275271193 3.001209052632978 -1.1904474910528038
39 -3.8000682348411305 -5.250828747880478 -0.24355365199470902
40 -2.426210896051896 -1.4176809779564874 -1.5084154992118461
41 -5.51585970243684 -1.2690373581547663 1.244399993346018
42 0.27218635299774846 2.294820922587273 -0.03419802006212352
43 -0.49515353403060924 4.457857803625818 0.13847453261339313
44 -1.0454614998543486 -1.9277044802309737 -0.9051431502551318
45 5.239730130863974 -5.000827302387176 0.34934997391822603
46 -3.0850867704418756 -2.5657994856668465 0.19718124788133506
47 1.509570486425434 -3.1857979663526246 0.25025990207197746
48 -4.869020846173965 0.7536744232263775 1.0093430972453228
49 -0.3944790117389264 1.5750358393847663 5.0869591388752005
50 3.6387678511235473 -0.35899433068458364 0.6410801724460556
51 3.6431232813741 -4.349058173520944 -3.067071310576071
52 2.5348308161135145 -3.7516138905228154 2.7626323627312668
53 0.7065203197167004 2.7968448518178746 -3.5836464035379976
54 -5.272658062289148 -1.8830557338002394 3.3224641340284364
55 4.938882602099933 4.150794743868581 -3.1202712034385756
56 3.9368105024193234 -3.367487548589499 -1.932303914171134
57 -1.9925942842619895 -0.03862300895883553 3.610054922769416
58 0.9332465836690407 4.047295276953924 0.030353890965657156
59 -3.111705709030039 -0.20402451694988608 2.0116407107163172
60 1.999170081393163 -1.5747877933133978 0.328409172286399
61 3.1735739848257767 -2.6603056766327144 -2.300417011483645
62 -1.708764275737985 1.0478569986007709 -0.7104347393067337
63 -3.0762742745090117 6.188878058716397 2.1648163226482966
64 -2.5811942498824165 3.7174969081049536 1.5261777160432475
