LAMMPS data file via write_data, version 29 Sep 2021, timestep = 10000

64 atoms
1 atom types

0 10.560000000000285 xlo xhi
0 9.145228263963919 ylo yhi
0 10.26 zlo zhi
0 0 0 xy xz yz

Masses

1 65.38

Atoms # atomic

1 1 1.3003032480886303 5.442765023273908 4.070750402232558 0 0 0
2 1 1.2680699408417875 5.610492934334277 9.439997968939561 0 0 0
3 1 10.523749551359266 7.701762738039301 4.041198345350239 -1 0 0
4 1 0.07535164552874145 7.7090472500590055 9.128785619263573 0 0 0
5 1 6.446359394179769 0.7205064209778017 3.598811759970522 0 0 0
6 1 6.877666738102198 0.7802809252074077 8.749604476119572 0 0 0
7 1 5.2757091324689025 3.1742841156564663 4.068398178707986 0 0 0
8 1 5.079835628949953 3.0113568301927005 8.710952541988453 0 0 0
9 1 1.4410723353499308 0.7617049800387465 3.9811805246305894 0 0 0
10 1 1.336981513771183 0.9678262824750709 9.346049929629714 0 0 0
11 1 10.489459599660375 3.0222907208413177 3.9501319729782227 -1 0 0
12 1 10.402827804749432 3.1702336782528358 8.733114217366916 -1 0 0
13 1 4.077143486437439 0.9146563443080804 4.352790611890699 0 0 0
14 1 4.077859180174343 0.7615165192709656 8.808129054697483 0 0 0
15 1 2.706939785919881 3.225708768702655 3.946255281894345 0 0 0
16 1 2.478242822473041 3.115920190117376 9.140903542874923 0 0 0
17 1 6.682515863352296 5.2021780493812315 3.6335341403789885 0 0 0
18 1 6.621988798426434 5.178603980054923 8.81090818601835 0 0 0
19 1 5.3313163303391065 7.719036558397299 3.5132614230417722 0 0 0
20 1 5.1597429658212794 7.483433931254155 8.67202054514335 0 0 0
21 1 9.32629507257766 5.4668865687235515 3.543123370223663 0 0 0
22 1 9.408344411061918 5.34728543822928 8.776526189063626 0 0 0
23 1 7.827843591287511 7.624523633989705 4.0634639763003975 0 0 0
24 1 7.832954473673441 7.444503584864046 8.809803874376286 0 0 0
25 1 3.945515050581776 5.64158053929099 3.6224344213646402 0 0 0
26 1 3.761387108447983 5.46313562988198 8.636096511615833 0 0 0
27 1 2.4748850284768324 7.723858524083604 3.8121393945297224 0 0 0
28 1 2.783010407207076 7.719908166805735 9.218483178738428 0 0 0
29 1 9.111630593894374 0.6380404417762419 3.5559587120336196 0 0 0
30 1 9.28520802490712 0.8319318406907866 8.841554337900334 0 0 0
31 1 7.897931217540937 2.9876630450772006 3.967126112052808 0 0 0
32 1 7.896158775072012 3.1651055107424173 9.213094912950153 0 0 0
33 1 5.182587008012179 1.3268459457788493 0.8944561529187625 0 0 0
34 1 5.474907130612453 1.3286886296260898 6.4368197119412205 0 0 0
35 1 3.825704355247337 3.5282813515714495 1.4059671169095374 0 0 0
36 1 4.129035004730271 3.7061771138589257 6.2772328575406116 0 0 0
37 1 2.822519839410937 5.984430635707834 1.449935133254759 0 0 0
38 1 2.6202200003392315 6.239587474866012 6.4298657196967755 0 0 0
39 1 1.3507894388442938 8.235217282235503 1.6038106323105226 0 0 0
40 1 1.3767146335221554 8.451143124381577 6.407259921550082 0 0 0
41 1 10.507935490508562 1.5854208019093714 1.4818573071421348 -1 0 0
42 1 0.09335690230542197 1.5302794574553198 6.228292229889642 0 0 0
43 1 2.4227028154119434 1.4389587232276728 1.3184762645324268 0 0 0
44 1 2.6282872971734985 1.4006484852955174 6.512444113543186 0 0 0
45 1 1.2241723461438894 3.7155120715921632 1.3604574657864383 0 0 0
46 1 1.3935271723419373 3.876848942298654 6.533491240869375 0 0 0
47 1 10.497368849025666 6.0688570245596996 1.3240471855855123 -1 0 0
48 1 10.522695793477181 6.002683495376275 6.330149438797133 -1 0 0
49 1 9.099715574977056 4.008680719988364 1.5849875001329352 0 0 0
50 1 9.279418244700611 3.755760043160977 6.094182455865545 0 0 0
51 1 7.8986250214063265 6.242587724912597 1.1740119118936412 0 0 0
52 1 7.9553132461315865 5.957847262146602 6.106714688125853 0 0 0
53 1 6.694079840912484 8.436785864707545 1.093966145242105 0 0 0
54 1 6.685067476277507 8.37519854243113 6.542846757420902 0 0 0
55 1 9.381985723445558 8.28843208482518 1.5669295507406702 0 0 0
56 1 9.279297179934089 8.26993003088746 6.656219151654382 0 0 0
57 1 7.786499114989653 1.4871461877462904 0.9768770084626549 0 0 0
58 1 8.057828108386797 1.4853337616522064 6.710040064811509 0 0 0
59 1 6.481902101115053 3.6893847565936326 1.1360603476983016 0 0 0
60 1 6.534470330732342 3.722060723518453 6.278636549292104 0 0 0
61 1 5.443255288484122 5.904767401131914 1.2817772949154898 0 0 0
62 1 5.1395148711200696 5.99008972427588 6.432752335229785 0 0 0
63 1 3.9943374774380564 8.542440944070178 1.58076136949063 0 0 0
64 1 4.051866802129513 8.343248950061176 6.3520906624906415 0 0 0

Velocities

1 -0.1514213509415 0.0824841313828515 4.022827771991429
2 -2.3765842430858983 4.546043828716383 0.6138471737386697
3 -0.36194512898477227 -1.917284019262789 3.6447338469233554
4 -2.6260734508375636 0.6900236320743646 -1.4570286822098488
5 3.402476035876279 -1.9449091262753657 -1.2857879464072615
6 -4.152061347742233 2.5155111469651885 -0.31979033996362316
7 -2.9339997406303557 2.2188676606276174 -1.0606969141853635
8 -0.29984937459038163 -4.91110493517336 0.6813091012564059
9 1.9123319325255672 -2.1847307651837973 -4.580711590179174
10 0.016353043881034597 2.779773468562695 -5.822105040954023
11 -2.2558363986795458 -4.090415152135993 1.7968233429657872
12 2.302801652822921 -2.444974662115413 -6.7752964397091695
13 -1.7625255375059967 2.0665715910975706 -2.792531884492395
14 0.14535705281808708 -1.2333295244629439 4.29377384335363
15 1.6358951480837387 -1.4877521288890438 -1.2910545803217157
16 -0.08067882361975776 -7.582716792055625 -0.8866010906471016
17 2.4652095850425018 -1.39621177311204 3.5682963587231717
18 -0.35365458141442196 -4.329995416152272 5.174501655254492
19 2.4534401375154644 -0.5756565017297706 -1.1410363265155996
20 5.081715118494735 3.1136663922941463 -2.815259624143308
21 0.485141405146111 -1.673464104003003 2.161358399967142
22 -1.0438796022769765 -0.028134057571516113 -4.025661821726623
23 2.916415708156668 6.584310777267131 -0.4691291176024007
24 -10.392833079970316 1.7537601863144165 -1.303364544310709
25 3.173667221305544 -2.490626160849911 -0.9205544844391583
26 -2.4303301260290393 -0.7470867776381956 1.8844531128665396
27 -1.8940468686748402 0.8096833526446441 3.247191688917386
28 4.2426257063155255 2.5869134392501074 -0.24717090310210596
29 -4.4142448725271795 -4.197594621148464 2.4939404403058663
30 -2.0251780314779237 0.31576793743706444 -3.4618735969690237
31 -2.5956922134185327 -3.265278084756891 0.29319536327477785
32 2.459609107668411 0.6080988397020793 0.6986698600551058
33 0.2471989228816367 -6.53328126273163 2.6562945839206664
34 -4.079274040668598 -1.5984302037305806 1.9334737970679758
35 -2.629983183733586 1.5472434169637455 -2.343516462635199
36 -1.2586835505197296 2.3310723684405246 0.9221508222530375
37 1.5757543845339936 4.230390705707717 0.194578318606921
38 -1.4529448635010642 1.4831225108102903 -0.18030046722468093
39 -1.7568870853113179 3.0091648484878597 6.630521319482693
40 -7.722767896416775 4.355787351168275 -1.3727023573193469
41 0.26936855599749837 -0.12545937628153134 -5.931766557433904
42 0.3099739008359201 2.5092734690009135 -6.469913169674503
43 -6.270821483304136 1.1641543308986537 -2.6282552206425898
44 8.809770174806598 3.458165146923762 -3.417532371848788
45 5.943566207741835 -1.9701745825837005 0.00558664778467074
46 1.8525099939887768 -2.5373383449577185 5.615330531470681
47 -2.6582438607632444 2.987018996325934 -1.363829682296462
48 1.174524294355665 2.1573355654121675 1.9568046916439508
49 5.654962752775409 -2.2631913980805676 2.3050280563512118
50 -1.5883925758318207 0.40165035831028023 1.1325986051663601
51 4.956645559180863 -1.8750838172268363 -1.6927909888853518
52 -7.695329303735702 3.929968983626354 0.2886460973598357
53 0.5868971879668363 2.033600364816647 0.7643691352421491
54 7.6120584338388975 -3.5517409800638906 1.2585822891348641
55 0.334941082386364 1.808477654133407 2.3725260777469117
56 2.2561033759469753 4.525168088962971 1.278270440556391
57 1.8817643188422726 -2.6145417315502915 -0.6052278404488883
58 -4.076247160408382 -4.459395684690616 -1.8940621213701783
59 0.18426962438583022 2.5655933449126396 -4.20069581749198
60 1.0416113131911537 -0.27048158993361415 1.3664850543472282
61 -2.140458424349657 3.5567073936955755 2.36331051473823
62 2.678614247667528 -6.3238189420775885 2.814493937542541
63 4.041952074993479 3.014972962910846 1.2514439002272228
64 1.3753429389813394 -1.1161417294203613 1.070831204913153
