ITEM: TIMESTEP
10000
ITEM: NUMBER OF ATOMS
64
ITEM: BOX BOUNDS xy xz yz pp pp pp
0.0000000000000000e+00 1.0560000000000285e+01 0.0000000000000000e+00
0.0000000000000000e+00 9.1452282639639186e+00 0.0000000000000000e+00
0.0000000000000000e+00 1.0260000000000000e+01 0.0000000000000000e+00
ITEM: ATOMS id type x y z
1 1 1.3003 5.44277 4.07075
2 1 1.26807 5.61049 9.44
3 1 10.5237 7.70176 4.0412
4 1 0.0753516 7.70905 9.12879
5 1 6.44636 0.720506 3.59881
6 1 6.87767 0.780281 8.7496
7 1 5.27571 3.17428 4.0684
8 1 5.07984 3.01136 8.71095
9 1 1.44107 0.761705 3.98118
10 1 1.33698 0.967826 9.34605
11 1 10.4895 3.02229 3.95013
12 1 10.4028 3.17023 8.73311
13 1 4.07714 0.914656 4.35279
14 1 4.07786 0.761517 8.80813
15 1 2.70694 3.22571 3.94626
16 1 2.47824 3.11592 9.1409
17 1 6.68252 5.20218 3.63353
18 1 6.62199 5.1786 8.81091
19 1 5.33132 7.71904 3.51326
20 1 5.15974 7.48343 8.67202
21 1 9.3263 5.46689 3.54312
22 1 9.40834 5.34729 8.77653
23 1 7.82784 7.62452 4.06346
24 1 7.83295 7.4445 8.8098
25 1 3.94552 5.64158 3.62243
26 1 3.76139 5.46314 8.6361
27 1 2.47489 7.72386 3.81214
28 1 2.78301 7.71991 9.21848
29 1 9.11163 0.63804 3.55596
30 1 9.28521 0.831932 8.84155
31 1 7.89793 2.98766 3.96713
32 1 7.89616 3.16511 9.21309
33 1 5.18259 1.32685 0.894456
34 1 5.47491 1.32869 6.43682
35 1 3.8257 3.52828 1.40597
36 1 4.12904 3.70618 6.27723
37 1 2.82252 5.98443 1.44994
38 1 2.62022 6.23959 6.42987
39 1 1.35079 8.23522 1.60381
40 1 1.37671 8.45114 6.40726
41 1 10.5079 1.58542 1.48186
42 1 0.0933569 1.53028 6.22829
43 1 2.4227 1.43896 1.31848
44 1 2.62829 1.40065 6.51244
45 1 1.22417 3.71551 1.36046
46 1 1.39353 3.87685 6.53349
47 1 10.4974 6.06886 1.32405
48 1 10.5227 6.00268 6.33015
49 1 9.09972 4.00868 1.58499
50 1 9.27942 3.75576 6.09418
51 1 7.89863 6.24259 1.17401
52 1 7.95531 5.95785 6.10671
53 1 6.69408 8.43679 1.09397
54 1 6.68507 8.3752 6.54285
55 1 9.38199 8.28843 1.56693
56 1 9.2793 8.26993 6.65622
57 1 7.7865 1.48715 0.976877
58 1 8.05783 1.48533 6.71004
59 1 6.4819 3.68938 1.13606
60 1 6.53447 3.72206 6.27864
61 1 5.44326 5.90477 1.28178
62 1 5.13951 5.99009 6.43275
63 1 3.99434 8.54244 1.58076
64 1 4.05187 8.34325 6.35209
