LAMMPS (29 Sep 2021 - Update 1)
Reading data file ...
  triclinic box = (0.0000000 0.0000000 0.0000000) to (10.480000 9.0759462 10.180000) with tilt (0.0000000 0.0000000 0.0000000)
  1 by 1 by 1 MPI processor grid
  reading atoms ...
  64 atoms
  read_data CPU = 0.001 seconds
Neighbor list info ...
  update every 1 steps, delay 0 steps, check yes
  max neighbors/atom: 2000, page size: 100000
  master list distance cutoff = 7
  ghost atom cutoff = 7
  binsize = 3.5, bins = 3 3 3
  1 neighbor lists, perpetual/occasional/extra = 1 0 0
  (1) pair mlip, perpetual
      attributes: full, newton on
      pair build: full/bin/atomonly
      stencil: full/bin/3d
      bin: standard
Setting up Verlet run ...
  Unit style    : metal
  Current step  : 0
  Time step     : 0.001
Per MPI rank memory allocation (min/avg/max) = 3.089 | 3.089 | 3.089 Mbytes
Step Time Temp Volume Press 
       0            0         1380    968.28003    16338.056 
       1        0.001    1379.0841    968.28003    16367.807 
       2        0.002    1376.3398    968.28003    16453.342 
       3        0.003    1371.7796    968.28003     16583.66 
       4        0.004    1365.4234    968.28003    16763.255 
       5        0.005     1357.297    968.28003    16996.219 
       6        0.006    1347.4323    968.28003    17283.869 
       7        0.007    1335.8682    968.28003    17625.584 
       8        0.008    1322.6513    968.28003    18020.935 
       9        0.009    1307.8354    968.28003    18468.509 
      10         0.01    1291.4818    968.28003    18966.632 
Loop time of 0.214336 on 1 procs for 10 steps with 64 atoms

Performance: 4.031 ns/day, 5.954 hours/ns, 46.656 timesteps/s
97.9% CPU use with 1 MPI tasks x no OpenMP threads

MPI task timing breakdown:
Section |  min time  |  avg time  |  max time  |%varavg| %total
---------------------------------------------------------------
Pair    | 0.21422    | 0.21422    | 0.21422    |   0.0 | 99.94
Neigh   | 0          | 0          | 0          |   0.0 |  0.00
Comm    | 3.5015e-05 | 3.5015e-05 | 3.5015e-05 |   0.0 |  0.02
Output  | 4.4978e-05 | 4.4978e-05 | 4.4978e-05 |   0.0 |  0.02
Modify  | 2.9113e-05 | 2.9113e-05 | 2.9113e-05 |   0.0 |  0.01
Other   |            | 1.175e-05  |            |       |  0.01

Nlocal:        64.0000 ave          64 max          64 min
Histogram: 1 0 0 0 0 0 0 0 0 0
Nghost:        886.000 ave         886 max         886 min
Histogram: 1 0 0 0 0 0 0 0 0 0
Neighs:         0.00000 ave           0 max           0 min
Histogram: 1 0 0 0 0 0 0 0 0 0
FullNghs:      6272.00 ave        6272 max        6272 min
Histogram: 1 0 0 0 0 0 0 0 0 0

Total # of neighbors = 6272
Ave neighs/atom = 98.000000
Neighbor list builds = 0
Dangerous builds = 0
Setting up Verlet run ...
  Unit style    : metal
  Current step  : 10
  Time step     : 0.001
Per MPI rank memory allocation (min/avg/max) = 3.089 | 3.089 | 3.089 Mbytes
Step Time Temp Volume Press 
      10         0.01    1291.4818    968.28003    18966.632 
      11        0.011    1273.6594    968.28003    19513.154 
      12        0.012    1254.4444    968.28003    20106.523 
      13        0.013    1233.9203    968.28003    20744.568 
      14        0.014    1212.1775    968.28003    21424.752 
      15        0.015    1189.3135    968.28003    22144.171 
      16        0.016    1165.4322    968.28003    22899.807 
      17        0.017    1140.6434    968.28003      23688.5 
      18        0.018    1115.0622    968.28003    24505.091 
      19        0.019    1088.8084    968.28003    25346.887 
      20         0.02    1062.0063    968.28003    26210.241 
      21        0.021    1034.7838    968.28003    27090.481 
      22        0.022    1007.2705    968.28003    27980.993 
      23        0.023    979.59735    968.28003    28877.947 
      24        0.024    951.89589    968.28003    29776.506 
      25        0.025    924.29775    968.28003     30674.61 
      26        0.026    896.93318    968.28003    31566.733 
      27        0.027    869.92926    968.28003    32447.951 
      28        0.028    843.40895    968.28003    33313.472 
      29        0.029    817.49076    968.28003    34163.707 
      30         0.03    792.28739    968.28003    34993.907 
      31        0.031    767.90415    968.28003    35802.271 
      32        0.032    744.43778    968.28003    36583.273 
      33        0.033    721.97573    968.28003     37336.83 
      34        0.034    700.59542    968.28003    38059.973 
      35        0.035    680.36294    968.28003    38748.713 
      36        0.036    661.33269    968.28003    39401.017 
      37        0.037    643.54731    968.28003    40016.635 
      38        0.038    627.03758    968.28003    40595.177 
      39        0.039    611.82211    968.28003    41134.827 
      40         0.04    597.90724    968.28003    41633.141 
      41        0.041    585.28741    968.28003    42090.306 
      42        0.042    573.94605    968.28003    42508.383 
      43        0.043    563.85621    968.28003    42887.215 
      44        0.044    554.98096    968.28003    43227.395 
      45        0.045    547.27444    968.28003    43530.576 
      46        0.046    540.68278    968.28003    43797.895 
      47        0.047    535.14502    968.28003    44029.676 
      48        0.048    530.59413    968.28003    44226.824 
      49        0.049    526.95845    968.28003    44392.855 
      50         0.05    524.16286    968.28003    44530.222 
      51        0.051     522.1297    968.28003    44641.649 
      52        0.052    520.77979    968.28003    44727.529 
      53        0.053     520.0335    968.28003    44790.325 
      54        0.054    519.81191    968.28003    44832.527 
      55        0.055    520.03777    968.28003    44857.291 
      56        0.056    520.63595    968.28003    44866.077 
      57        0.057    521.53403    968.28003     44860.79 
      58        0.058    522.66328    968.28003    44845.066 
      59        0.059    523.95925    968.28003    44821.116 
      60         0.06    525.36198    968.28003    44791.229 
      61        0.061    526.81633    968.28003     44756.82 
      62        0.062    528.27198    968.28003     44717.71 
      63        0.063    529.68356    968.28003    44675.473 
      64        0.064    531.01113    968.28003    44632.786 
      65        0.065    532.22036    968.28003    44591.788 
      66        0.066    533.28224    968.28003     44553.61 
      67        0.067    534.17292    968.28003    44518.793 
      68        0.068    534.87343    968.28003    44487.902 
      69        0.069     535.3692    968.28003    44460.463 
      70         0.07    535.65018    968.28003    44438.621 
      71        0.071    535.71076    968.28003    44420.888 
      72        0.072    535.54913    968.28003    44406.594 
      73        0.073     535.1675    968.28003    44395.722 
      74        0.074    534.57173    968.28003    44390.073 
      75        0.075    533.77047    968.28003    44392.421 
      76        0.076     532.7753    968.28003    44401.112 
      77        0.077    531.60057    968.28003    44414.786 
      78        0.078    530.26274    968.28003    44432.325 
      79        0.079    528.78027    968.28003    44454.046 
      80         0.08    527.17327    968.28003    44480.048 
      81        0.081    525.46307    968.28003    44508.468 
      82        0.082    523.67186    968.28003    44540.107 
      83        0.083    521.82231    968.28003    44574.657 
      84        0.084    519.93732    968.28003    44611.554 
      85        0.085    518.03973    968.28003    44649.772 
      86        0.086    516.15209    968.28003    44689.618 
      87        0.087     514.2965    968.28003    44729.982 
      88        0.088    512.49421    968.28003    44769.716 
      89        0.089    510.76561    968.28003    44808.582 
      90         0.09    509.12984    968.28003    44846.236 
      91        0.091    507.60454    968.28003    44881.764 
      92        0.092    506.20584    968.28003     44914.81 
      93        0.093    504.94828    968.28003    44945.505 
      94        0.094    503.84462    968.28003    44973.022 
      95        0.095    502.90571    968.28003    44996.612 
      96        0.096    502.14039    968.28003    45016.357 
      97        0.097    501.55567    968.28003    45032.407 
      98        0.098    501.15665    968.28003    45044.353 
      99        0.099    500.94636    968.28003    45051.702 
     100          0.1    500.92582    968.28003    45051.227 
Loop time of 1.91057 on 1 procs for 90 steps with 64 atoms

Performance: 4.070 ns/day, 5.897 hours/ns, 47.106 timesteps/s
99.9% CPU use with 1 MPI tasks x no OpenMP threads

MPI task timing breakdown:
Section |  min time  |  avg time  |  max time  |%varavg| %total
---------------------------------------------------------------
Pair    | 1.9094     | 1.9094     | 1.9094     |   0.0 | 99.94
Neigh   | 0.00023194 | 0.00023194 | 0.00023194 |   0.0 |  0.01
Comm    | 0.00031518 | 0.00031518 | 0.00031518 |   0.0 |  0.02
Output  | 0.00037903 | 0.00037903 | 0.00037903 |   0.0 |  0.02
Modify  | 0.00018233 | 0.00018233 | 0.00018233 |   0.0 |  0.01
Other   |            | 8.272e-05  |            |       |  0.00

Nlocal:        64.0000 ave          64 max          64 min
Histogram: 1 0 0 0 0 0 0 0 0 0
Nghost:        886.000 ave         886 max         886 min
Histogram: 1 0 0 0 0 0 0 0 0 0
Neighs:         0.00000 ave           0 max           0 min
Histogram: 1 0 0 0 0 0 0 0 0 0
FullNghs:      6104.00 ave        6104 max        6104 min
Histogram: 1 0 0 0 0 0 0 0 0 0

Total # of neighbors = 6104
Ave neighs/atom = 95.375000
Neighbor list builds = 1
Dangerous builds = 0
Setting up Verlet run ...
  Unit style    : metal
  Current step  : 100
  Time step     : 0.001
Per MPI rank memory allocation (min/avg/max) = 3.089 | 3.089 | 3.089 Mbytes
Step Time Temp Volume Press 
     100          0.1    500.92582    968.28003    45051.227 
     110         0.11    510.14866    968.28003    44767.638 
     120         0.12    529.35861    968.28003    44190.957 
     130         0.13    547.75498    968.28003    43662.537 
     140         0.14    559.90042    968.28003     43457.92 
     150         0.15    563.25026    968.28003    43731.296 
     160         0.16     556.3631    968.28003    44532.511 
     170         0.17    546.51066    968.28003    45541.657 
     180         0.18      551.518    968.28003    46082.492 
     190         0.19    579.82389    968.28003      45906.2 
     200          0.2    616.13085    968.28003    45339.666 
     210         0.21    639.25897    968.28003    44991.138 
     220         0.22    642.84172    968.28003    45122.898 
     230         0.23    638.07614    968.28003    45428.905 
     240         0.24    647.12534    968.28003    45277.504 
     250         0.25    684.08693    968.28003    44307.704 
     260         0.26    736.55261    968.28003    42847.654 
     270         0.27    777.44187    968.28003    41815.708 
     280         0.28    788.72712    968.28003     41837.55 
     290         0.29    771.33711    968.28003    42794.634 
     300          0.3    740.15149    968.28003    44061.064 
     310         0.31    712.02259    968.28003    45142.139 
     320         0.32    695.47828    968.28003    45859.414 
     330         0.33    691.33119    968.28003    46146.234 
     340         0.34    694.71943    968.28003     46106.19 
     350         0.35    695.87824    968.28003    45974.037 
     360         0.36    690.33203    968.28003    45868.306 
     370         0.37    686.79376    968.28003    45695.962 
     380         0.38    694.69253    968.28003    45222.983 
     390         0.39    709.69276    968.28003    44660.679 
     400          0.4    715.20876    968.28003    44476.398 
     410         0.41     701.6503    968.28003    44880.408 
     420         0.42    680.77337    968.28003    45482.626 
     430         0.43    673.95137    968.28003    45610.855 
     440         0.44    688.88069    968.28003    45037.052 
     450         0.45    710.13532    968.28003    44319.396 
     460         0.46    713.50209    968.28003    44173.198 
     470         0.47    690.70166    968.28003     44860.75 
     480         0.48    655.86692    968.28003    45996.461 
     490         0.49    629.41169    968.28003    46899.287 
     500          0.5    624.30291    968.28003    47147.472 
     510         0.51     642.2823    968.28003    46657.305 
     520         0.52    674.79809    968.28003    45591.112 
     530         0.53    712.58367    968.28003    44286.965 
     540         0.54    750.68388    968.28003     43100.04 
     550         0.55    777.26877    968.28003    42452.409 
     560         0.56    776.32421    968.28003    42657.143 
     570         0.57    754.12046    968.28003    43440.626 
     580         0.58    737.94571    968.28003    44192.036 
     590         0.59    740.80335    968.28003    44511.355 
     600          0.6    747.13238    968.28003    44657.516 
     610         0.61    740.23441    968.28003    44863.546 
     620         0.62    727.50943    968.28003    44910.157 
     630         0.63    730.24335    968.28003    44255.676 
     640         0.64    757.40914    968.28003    42858.858 
     650         0.65    795.03005    968.28003    41220.119 
     660         0.66     814.5486    968.28003     40298.52 
     670         0.67    795.01125    968.28003     40573.02 
     680         0.68    743.16763    968.28003    41818.755 
     690         0.69    688.67625    968.28003    43111.001 
     700          0.7    658.36452    968.28003    43588.548 
     710         0.71    657.22489    968.28003    43067.499 
     720         0.72    671.56745    968.28003    41971.939 
     730         0.73    682.08721    968.28003    40987.959 
     740         0.74    673.60841    968.28003    40556.866 
     750         0.75    646.12994    968.28003    40738.255 
     760         0.76    615.96049    968.28003    41132.281 
     770         0.77    597.51569    968.28003    41343.264 
     780         0.78    588.01017    968.28003    41500.684 
     790         0.79    577.50548    968.28003    41764.497 
     800          0.8    566.92185    968.28003    42047.868 
     810         0.81    566.95979    968.28003    42007.151 
     820         0.82    584.15795    968.28003    41420.375 
     830         0.83    617.45804    968.28003    40256.141 
     840         0.84    661.29682    968.28003     38766.29 
     850         0.85    704.57087    968.28003    37390.888 
     860         0.86    733.39856    968.28003    36645.299 
     870         0.87    735.78889    968.28003    36912.024 
     880         0.88    709.05906    968.28003    38214.745 
     890         0.89    667.72521    968.28003     40073.33 
     900          0.9    634.28444    968.28003    41732.946 
     910         0.91    621.04592    968.28003    42814.683 
     920         0.92     622.1056    968.28003    43414.551 
     930         0.93    624.02996    968.28003    43802.479 
     940         0.94    629.04764    968.28003    44014.876 
     950         0.95    652.98792    968.28003    43809.876 
     960         0.96    695.59774    968.28003    43142.754 
     970         0.97    736.88328    968.28003    42498.292 
     980         0.98    757.05842    968.28003     42586.69 
     990         0.99    748.69843    968.28003    43540.006 
    1000            1    722.88224    968.28003    45030.078 
Loop time of 18.9386 on 1 procs for 900 steps with 64 atoms

Performance: 4.106 ns/day, 5.845 hours/ns, 47.522 timesteps/s
100.0% CPU use with 1 MPI tasks x no OpenMP threads

MPI task timing breakdown:
Section |  min time  |  avg time  |  max time  |%varavg| %total
---------------------------------------------------------------
Pair    | 18.929     | 18.929     | 18.929     |   0.0 | 99.95
Neigh   | 0.0034056  | 0.0034056  | 0.0034056  |   0.0 |  0.02
Comm    | 0.0031519  | 0.0031519  | 0.0031519  |   0.0 |  0.02
Output  | 0.00042723 | 0.00042723 | 0.00042723 |   0.0 |  0.00
Modify  | 0.0015726  | 0.0015726  | 0.0015726  |   0.0 |  0.01
Other   |            | 0.00069    |            |       |  0.00

Nlocal:        64.0000 ave          64 max          64 min
Histogram: 1 0 0 0 0 0 0 0 0 0
Nghost:        882.000 ave         882 max         882 min
Histogram: 1 0 0 0 0 0 0 0 0 0
Neighs:         0.00000 ave           0 max           0 min
Histogram: 1 0 0 0 0 0 0 0 0 0
FullNghs:      6182.00 ave        6182 max        6182 min
Histogram: 1 0 0 0 0 0 0 0 0 0

Total # of neighbors = 6182
Ave neighs/atom = 96.593750
Neighbor list builds = 15
Dangerous builds = 0
Setting up Verlet run ...
  Unit style    : metal
  Current step  : 1000
  Time step     : 0.001
Per MPI rank memory allocation (min/avg/max) = 3.089 | 3.089 | 3.089 Mbytes
Step Time Temp Volume Press 
    1000            1    722.88224    968.28003    45030.078 
    1100          1.1    695.65225    968.28003    49949.725 
    1200          1.2    702.40643    968.28003    47597.312 
    1300          1.3      720.354    968.28003    44546.455 
    1400          1.4    759.21851    968.28003    41849.538 
    1500          1.5     747.0501    968.28003    41263.954 
    1600          1.6    653.85391    968.28003    42283.453 
    1700          1.7    700.33821    968.28003    38247.604 
    1800          1.8     645.6265    968.28003     40557.38 
    1900          1.9     730.3378    968.28003    43957.452 
    2000            2    828.96066    968.28003    44879.361 
    2100          2.1    759.30803    968.28003     41957.06 
    2200          2.2    574.16046    968.28003    44879.509 
    2300          2.3    678.68032    968.28003    41904.653 
    2400          2.4    655.47814    968.28003    44868.043 
    2500          2.5    764.56707    968.28003     42008.54 
    2600          2.6    803.17641    968.28003    39679.535 
    2700          2.7     629.0579    968.28003    40560.307 
    2800          2.8    648.01709    968.28003    39712.456 
    2900          2.9    703.56128    968.28003     39903.03 
    3000            3    753.63166    968.28003    44035.113 
    3100          3.1    764.58676    968.28003    47635.358 
    3200          3.2    736.84542    968.28003    49220.841 
    3300          3.3    593.30838    968.28003    45198.531 
    3400          3.4    689.00812    968.28003    39469.873 
    3500          3.5    581.35651    968.28003    43688.623 
    3600          3.6    733.55051    968.28003    43063.572 
    3700          3.7    714.76111    968.28003    44338.743 
    3800          3.8    686.56358    968.28003    43070.297 
    3900          3.9    581.29144    968.28003    40842.577 
    4000            4    621.84571    968.28003    39265.213 
    4100          4.1    693.31935    968.28003    41610.531 
    4200          4.2    762.59646    968.28003    44040.388 
    4300          4.3    702.67949    968.28003    46753.395 
    4400          4.4    776.21486    968.28003    43992.559 
    4500          4.5    645.21603    968.28003    42779.201 
    4600          4.6     649.8395    968.28003    38145.138 
    4700          4.7     628.3452    968.28003     40409.32 
    4800          4.8    635.52599    968.28003    42028.535 
    4900          4.9    715.86221    968.28003    41923.211 
    5000            5    812.39774    968.28003    41097.601 
    5100          5.1    667.68214    968.28003    45398.997 
    5200          5.2    705.17711    968.28003    39815.979 
    5300          5.3    622.94681    968.28003    40348.287 
    5400          5.4    620.16963    968.28003    42365.724 
    5500          5.5    697.04252    968.28003    40339.544 
    5600          5.6    765.32981    968.28003    41436.259 
    5700          5.7     662.0462    968.28003    45121.377 
    5800          5.8    568.60403    968.28003     43411.31 
    5900          5.9    606.85485    968.28003    38550.698 
    6000            6    507.48404    968.28003    42482.012 
    6100          6.1    747.92188    968.28003    42903.037 
    6200          6.2    634.21933    968.28003    45483.409 
    6300          6.3    736.88096    968.28003    40479.568 
    6400          6.4    724.46943    968.28003    44618.621 
    6500          6.5    777.73496    968.28003    46977.991 
    6600          6.6    681.71062    968.28003    47378.197 
    6700          6.7    649.96525    968.28003    40984.906 
    6800          6.8    652.25223    968.28003    41338.457 
    6900          6.9    747.99844    968.28003    37353.452 
    7000            7    564.88214    968.28003    35568.336 
    7100          7.1    673.98537    968.28003    33708.775 
    7200          7.2    672.75924    968.28003    40037.144 
    7300          7.3    665.48357    968.28003    44053.321 
    7400          7.4    676.81228    968.28003    45834.128 
    7500          7.5    701.03582    968.28003    46437.277 
    7600          7.6     843.7483    968.28003    45155.146 
    7700          7.7    861.85833    968.28003    40410.296 
    7800          7.8    668.28808    968.28003     40434.95 
    7900          7.9    599.26215    968.28003    41328.879 
    8000            8    650.13327    968.28003    42252.266 
    8100          8.1    711.55154    968.28003    47766.874 
    8200          8.2    713.80641    968.28003     48986.75 
    8300          8.3    721.26931    968.28003    44560.125 
    8400          8.4    651.84222    968.28003    45355.777 
    8500          8.5    668.45474    968.28003    43849.975 
    8600          8.6     707.8023    968.28003    42824.232 
    8700          8.7    636.06643    968.28003    44920.884 
    8800          8.8    677.63646    968.28003    40268.459 
    8900          8.9    567.00289    968.28003    41341.325 
    9000            9    688.06027    968.28003    41092.313 
    9100          9.1    691.64868    968.28003    48105.168 
    9200          9.2    807.27668    968.28003    46413.702 
    9300          9.3    768.05677    968.28003    44635.344 
    9400          9.4     689.0467    968.28003    43216.988 
    9500          9.5    541.64526    968.28003    48733.707 
    9600          9.6     733.0426    968.28003     42395.11 
    9700          9.7    566.65445    968.28003    46128.009 
    9800          9.8    739.09527    968.28003    38780.926 
    9900          9.9    738.77282    968.28003    38787.482 
   10000           10    760.86179    968.28003    40218.608 
Loop time of 197.804 on 1 procs for 9000 steps with 64 atoms

Performance: 3.931 ns/day, 6.105 hours/ns, 45.500 timesteps/s
100.0% CPU use with 1 MPI tasks x no OpenMP threads

MPI task timing breakdown:
Section |  min time  |  avg time  |  max time  |%varavg| %total
---------------------------------------------------------------
Pair    | 197.71     | 197.71     | 197.71     |   0.0 | 99.95
Neigh   | 0.039021   | 0.039021   | 0.039021   |   0.0 |  0.02
Comm    | 0.032829   | 0.032829   | 0.032829   |   0.0 |  0.02
Output  | 0.00056176 | 0.00056176 | 0.00056176 |   0.0 |  0.00
Modify  | 0.016392   | 0.016392   | 0.016392   |   0.0 |  0.01
Other   |            | 0.007077   |            |       |  0.00

Nlocal:        64.0000 ave          64 max          64 min
Histogram: 1 0 0 0 0 0 0 0 0 0
Nghost:        886.000 ave         886 max         886 min
Histogram: 1 0 0 0 0 0 0 0 0 0
Neighs:         0.00000 ave           0 max           0 min
Histogram: 1 0 0 0 0 0 0 0 0 0
FullNghs:      6138.00 ave        6138 max        6138 min
Histogram: 1 0 0 0 0 0 0 0 0 0

Total # of neighbors = 6138
Ave neighs/atom = 95.906250
Neighbor list builds = 164
Dangerous builds = 0
System init for write_data ...
Total wall time: 0:03:39
