ITEM: TIMESTEP
10000
ITEM: NUMBER OF ATOMS
64
ITEM: BOX BOUNDS xy xz yz pp pp pp
0.0000000000000000e+00 1.0479999999999203e+01 0.0000000000000000e+00
0.0000000000000000e+00 9.0759462316602288e+00 0.0000000000000000e+00
0.0000000000000000e+00 1.0179999999999998e+01 0.0000000000000000e+00
ITEM: ATOMS id type x y z
1 1 1.53036 5.39064 3.81243
2 1 1.30922 5.2319 8.62327
3 1 10.5178 7.72991 3.75114
4 1 10.4699 7.45391 8.45828
5 1 6.67045 0.64562 3.86874
6 1 6.52208 0.924435 8.69646
7 1 5.33907 2.84978 3.76781
8 1 5.32183 2.94835 8.78692
9 1 1.21096 0.834641 3.77419
10 1 1.37085 0.382391 8.65829
11 1 0.327095 3.0687 3.23591
12 1 10.4135 3.05153 8.59696
13 1 3.74208 0.706634 3.6922
14 1 4.00136 0.862997 9.42536
15 1 2.96454 3.21229 3.52528
16 1 2.43978 2.72264 8.59109
17 1 6.73726 5.22593 3.90145
18 1 6.35871 5.26334 9.2121
19 1 5.36189 7.47203 4.15466
20 1 5.39921 7.59566 9.30352
21 1 9.28433 5.1355 4.09389
22 1 9.23239 5.3692 8.95559
23 1 7.98119 7.33096 3.84063
24 1 7.74716 7.63361 8.58941
25 1 4.0387 5.354 4.1855
26 1 3.81772 5.21482 8.85088
27 1 2.62062 7.59151 3.78881
28 1 2.68036 7.32685 9.2618
29 1 9.21266 0.798927 3.81864
30 1 9.28181 0.82204 8.66123
31 1 7.85674 3.08783 4.38619
32 1 8.0832 3.24006 9.24937
33 1 5.24668 1.39278 1.59786
34 1 5.07804 1.74333 6.14453
35 1 3.98543 3.89183 0.794558
36 1 3.9169 3.84521 6.4042
37 1 2.672 5.70369 1.49252
38 1 2.64539 6.32934 6.51446
39 1 1.22759 8.14971 1.32043
40 1 1.22514 8.32672 6.09239
41 1 10.2389 1.40793 1.35203
42 1 -0.00186318 1.61872 6.17841
43 1 2.36422 1.43435 1.20806
44 1 2.56122 1.54557 6.12457
45 1 1.17644 3.77317 0.61552
46 1 1.08389 3.91784 5.8605
47 1 0.240412 5.92642 1.19064
48 1 -0.0817725 6.00778 6.16744
49 1 9.12591 3.74414 1.60428
50 1 9.02072 3.697 6.61388
51 1 8.11129 6.00039 1.50585
52 1 7.84242 6.19946 6.49305
53 1 6.62306 8.22723 1.73104
54 1 6.31821 8.44804 6.23406
55 1 9.25372 8.27736 1.43588
56 1 8.97675 8.41009 6.12385
57 1 7.82199 1.64166 1.33469
58 1 7.60756 1.42569 6.36189
59 1 6.56618 3.77534 1.48435
60 1 6.46454 3.97756 6.6722
61 1 5.17637 6.11211 1.1831
62 1 5.27688 6.31921 6.79813
63 1 3.81605 8.22968 1.43622
64 1 3.93488 8.45229 6.1714
