ITEM: TIMESTEP
10000
ITEM: NUMBER OF ATOMS
64
ITEM: BOX BOUNDS xy xz yz pp pp pp
0.0000000000000000e+00 1.0640000000001363e+01 0.0000000000000000e+00
0.0000000000000000e+00 9.2145102962676049e+00 0.0000000000000000e+00
0.0000000000000000e+00 1.0060000000000000e+01 0.0000000000000000e+00
ITEM: ATOMS id type x y z
1 1 0.917783 5.44671 4.25906
2 1 1.29278 5.35545 8.8439
3 1 0.0216943 7.69889 3.74363
4 1 0.132134 7.48068 9.28838
5 1 6.61133 0.624073 3.59253
6 1 6.50824 0.77431 9.35225
7 1 5.33354 3.0683 3.79386
8 1 5.36482 3.13877 8.89077
9 1 1.32129 0.811789 3.77848
10 1 1.46508 0.797118 8.62339
11 1 0.114653 3.18832 3.78531
12 1 0.10233 2.93123 9.01446
13 1 3.78705 1.13639 3.23299
14 1 4.06137 0.775371 8.66615
15 1 2.57024 3.47936 3.93782
16 1 2.48404 3.01759 8.75836
17 1 6.66474 5.35767 3.63782
18 1 6.71909 5.60421 8.8394
19 1 5.27217 7.25105 3.62182
20 1 5.40186 7.54477 9.19726
21 1 9.11807 5.30481 3.78014
22 1 9.22928 5.09435 8.77024
23 1 7.87724 7.68385 3.61603
24 1 8.2681 7.59623 9.03172
25 1 3.96635 5.20562 3.65461
26 1 4.0016 5.24919 8.68608
27 1 2.81053 7.47408 4.1814
28 1 2.55666 7.69753 8.9476
29 1 8.96799 1.1226 3.66581
30 1 9.27451 0.620323 8.36355
31 1 7.95928 3.18771 3.75159
32 1 7.87112 2.67172 8.25557
33 1 5.32934 1.58256 1.43958
34 1 5.36878 1.40368 5.57682
35 1 4.01577 4.01668 0.793529
36 1 3.88836 4.03831 6.26862
37 1 3.04023 6.19682 1.28492
38 1 2.75678 6.22834 6.47928
39 1 1.3392 8.20269 1.61841
40 1 1.33454 8.62649 5.99677
41 1 10.4964 1.41484 1.45688
42 1 10.6088 1.60296 6.30355
43 1 2.49975 1.37598 0.780522
44 1 2.98683 1.81838 6.18555
45 1 1.36991 3.67628 1.65071
46 1 1.30275 3.6523 6.43101
47 1 0.200735 6.04078 1.74167
48 1 10.5859 6.25769 6.47056
49 1 9.3225 3.7574 1.48183
50 1 9.29569 3.91614 6.16619
51 1 8.23913 6.07887 1.37395
52 1 7.92189 6.52219 6.25841
53 1 6.85811 8.40738 1.27537
54 1 6.42575 8.43978 5.75392
55 1 9.35809 8.44563 1.12289
56 1 9.21807 8.63187 5.86156
57 1 7.90924 1.61684 1.41836
58 1 8.02337 1.51939 5.98037
59 1 6.62632 3.63504 1.21632
60 1 6.75679 4.00149 6.4133
61 1 5.64213 6.0876 1.2505
62 1 5.31034 6.18487 6.43194
63 1 3.8999 8.52107 1.56479
64 1 3.86163 8.57388 6.30993
