LAMMPS (29 Sep 2021 - Update 1)
Reading data file ...
  triclinic box = (0.0000000 0.0000000 0.0000000) to (10.480000 9.0759462 9.9400000) with tilt (0.0000000 0.0000000 0.0000000)
  1 by 1 by 1 MPI processor grid
  reading atoms ...
  64 atoms
  read_data CPU = 0.001 seconds
Neighbor list info ...
  update every 1 steps, delay 0 steps, check yes
  max neighbors/atom: 2000, page size: 100000
  master list distance cutoff = 7
  ghost atom cutoff = 7
  binsize = 3.5, bins = 3 3 3
  1 neighbor lists, perpetual/occasional/extra = 1 0 0
  (1) pair mlip, perpetual
      attributes: full, newton on
      pair build: full/bin/atomonly
      stencil: full/bin/3d
      bin: standard
Setting up Verlet run ...
  Unit style    : metal
  Current step  : 0
  Time step     : 0.001
Per MPI rank memory allocation (min/avg/max) = 3.089 | 3.089 | 3.089 Mbytes
Step Time Temp Volume Press 
       0            0         1380    945.45221    30373.817 
       1        0.001    1378.9516    945.45221    30402.005 
       2        0.002     1375.814    945.45221     30480.35 
       3        0.003    1370.6099    945.45221    30622.746 
       4        0.004    1363.3728    945.45221    30831.896 
       5        0.005    1354.1449    945.45221    31107.274 
       6        0.006    1342.9765    945.45221    31447.916 
       7        0.007    1329.9257    945.45221    31852.197 
       8        0.008    1315.0582    945.45221    32318.329 
       9        0.009     1298.447    945.45221    32844.251 
      10         0.01    1280.1725    945.45221      33427.5 
Loop time of 0.228188 on 1 procs for 10 steps with 64 atoms

Performance: 3.786 ns/day, 6.339 hours/ns, 43.824 timesteps/s
98.5% CPU use with 1 MPI tasks x no OpenMP threads

MPI task timing breakdown:
Section |  min time  |  avg time  |  max time  |%varavg| %total
---------------------------------------------------------------
Pair    | 0.22808    | 0.22808    | 0.22808    |   0.0 | 99.95
Neigh   | 0          | 0          | 0          |   0.0 |  0.00
Comm    | 3.34e-05   | 3.34e-05   | 3.34e-05   |   0.0 |  0.01
Output  | 3.8764e-05 | 3.8764e-05 | 3.8764e-05 |   0.0 |  0.02
Modify  | 2.2191e-05 | 2.2191e-05 | 2.2191e-05 |   0.0 |  0.01
Other   |            | 1.083e-05  |            |       |  0.00

Nlocal:        64.0000 ave          64 max          64 min
Histogram: 1 0 0 0 0 0 0 0 0 0
Nghost:        886.000 ave         886 max         886 min
Histogram: 1 0 0 0 0 0 0 0 0 0
Neighs:         0.00000 ave           0 max           0 min
Histogram: 1 0 0 0 0 0 0 0 0 0
FullNghs:      6272.00 ave        6272 max        6272 min
Histogram: 1 0 0 0 0 0 0 0 0 0

Total # of neighbors = 6272
Ave neighs/atom = 98.000000
Neighbor list builds = 0
Dangerous builds = 0
Setting up Verlet run ...
  Unit style    : metal
  Current step  : 10
  Time step     : 0.001
Per MPI rank memory allocation (min/avg/max) = 3.089 | 3.089 | 3.089 Mbytes
Step Time Temp Volume Press 
      10         0.01    1280.1725    945.45221      33427.5 
      11        0.011    1260.3219    945.45221    34065.393 
      12        0.012    1238.9892    945.45221    34755.068 
      13        0.013    1216.2746    945.45221    35493.398 
      14        0.014    1192.2844    945.45221    36276.912 
      15        0.015    1167.1304    945.45221    37102.179 
      16        0.016    1140.9297    945.45221    37965.473 
      17        0.017    1113.8037    945.45221    38862.913 
      18        0.018    1085.8781    945.45221    39790.453 
      19        0.019    1057.2818    945.45221    40743.922 
      20         0.02    1028.1467    945.45221    41719.002 
      21        0.021    998.60613    945.45221    42711.433 
      22        0.022    968.79498    945.45221    43716.817 
      23        0.023    938.84823    945.45221    44730.736 
      24        0.024    908.90027    945.45221     45748.69 
      25        0.025    879.08395    945.45221    46766.381 
      26        0.026    849.52969    945.45221    47779.471 
      27        0.027    820.36447    945.45221    48783.811 
      28        0.028    791.71099    945.45221    49775.209 
      29        0.029    763.68669    945.45221    50749.537 
      30         0.03    736.40297    945.45221    51702.957 
      31        0.031    709.96399    945.45221    52630.249 
      32        0.032    684.46617    945.45221    53528.542 
      33        0.033    659.99782    945.45221    54394.459 
      34        0.034    636.63857    945.45221    55225.866 
      35        0.035    614.45879    945.45221    56019.913 
      36        0.036    593.51922    945.45221    56774.741 
      37        0.037    573.87061    945.45221    57486.612 
      38        0.038    555.55352    945.45221    58154.608 
      39        0.039    538.59847    945.45221    58777.478 
      40         0.04    523.02585    945.45221    59353.536 
      41        0.041    508.84613    945.45221    59882.355 
      42        0.042    496.06029    945.45221    60363.866 
      43        0.043    484.66009    945.45221    60797.374 
      44        0.044    474.62842    945.45221    61182.308 
      45        0.045    465.93975    945.45221    61518.176 
      46        0.046    458.56102    945.45221     61807.67 
      47        0.047    452.45231    945.45221    62049.075 
      48        0.048    447.56759    945.45221    62244.354 
      49        0.049    443.85538    945.45221    62395.567 
      50         0.05    441.25928    945.45221    62505.394 
      51        0.051    439.71899    945.45221    62575.154 
      52        0.052    439.17098    945.45221    62604.912 
      53        0.053     439.5492    945.45221    62597.693 
      54        0.054    440.78546    945.45221    62558.273 
      55        0.055    442.81025    945.45221    62488.228 
      56        0.056    445.55348    945.45221    62389.115 
      57        0.057    448.94492    945.45221    62262.198 
      58        0.058    452.91487    945.45221     62110.81 
      59        0.059    457.39475    945.45221     61937.82 
      60         0.06    462.31731    945.45221    61743.319 
      61        0.061    467.61698    945.45221    61531.025 
      62        0.062    473.23019    945.45221    61302.865 
      63        0.063    479.09558    945.45221    61060.447 
      64        0.064    485.15446    945.45221    60808.135 
      65        0.065    491.35067    945.45221    60545.723 
      66        0.066    497.63054    945.45221    60277.668 
      67        0.067    503.94343    945.45221    60005.503 
      68        0.068    510.24173    945.45221    59732.885 
      69        0.069    516.48098    945.45221    59460.446 
      70         0.07    522.61975    945.45221    59189.369 
      71        0.071    528.61954    945.45221    58921.611 
      72        0.072     534.4448    945.45221     58658.89 
      73        0.073     540.0627    945.45221    58402.039 
      74        0.074    545.44274    945.45221    58150.997 
      75        0.075    550.55699    945.45221    57908.122 
      76        0.076    555.38015    945.45221    57674.613 
      77        0.077    559.88915    945.45221    57453.557 
      78        0.078     564.0629    945.45221    57243.682 
      79        0.079    567.88245    945.45221    57047.536 
      80         0.08    571.33114    945.45221    56866.971 
      81        0.081    574.39413    945.45221    56701.572 
      82        0.082    577.05839    945.45221    56551.618 
      83        0.083    579.31264    945.45221    56418.062 
      84        0.084    581.14736    945.45221    56301.775 
      85        0.085    582.55493    945.45221    56202.174 
      86        0.086    583.52979    945.45221    56119.017 
      87        0.087    584.06807    945.45221    56052.885 
      88        0.088    584.16758    945.45221    56004.346 
      89        0.089    583.82812    945.45221    55973.274 
      90         0.09    583.05158    945.45221    55958.473 
      91        0.091    581.84218    945.45221    55958.843 
      92        0.092    580.20671    945.45221    55975.363 
      93        0.093    578.15433    945.45221    56006.812 
      94        0.094    575.69689    945.45221    56054.073 
      95        0.095    572.84917    945.45221    56115.937 
      96        0.096    569.62891    945.45221    56191.076 
      97        0.097     566.0569    945.45221    56279.641 
      98        0.098    562.15733    945.45221    56377.767 
      99        0.099    557.95754    945.45221    56488.197 
     100          0.1    553.48802    945.45221    56609.394 
Loop time of 1.93573 on 1 procs for 90 steps with 64 atoms

Performance: 4.017 ns/day, 5.974 hours/ns, 46.494 timesteps/s
100.0% CPU use with 1 MPI tasks x no OpenMP threads

MPI task timing breakdown:
Section |  min time  |  avg time  |  max time  |%varavg| %total
---------------------------------------------------------------
Pair    | 1.9347     | 1.9347     | 1.9347     |   0.0 | 99.94
Neigh   | 0.00022184 | 0.00022184 | 0.00022184 |   0.0 |  0.01
Comm    | 0.00028841 | 0.00028841 | 0.00028841 |   0.0 |  0.01
Output  | 0.00032287 | 0.00032287 | 0.00032287 |   0.0 |  0.02
Modify  | 0.00016338 | 0.00016338 | 0.00016338 |   0.0 |  0.01
Other   |            | 7.309e-05  |            |       |  0.00

Nlocal:        64.0000 ave          64 max          64 min
Histogram: 1 0 0 0 0 0 0 0 0 0
Nghost:        886.000 ave         886 max         886 min
Histogram: 1 0 0 0 0 0 0 0 0 0
Neighs:         0.00000 ave           0 max           0 min
Histogram: 1 0 0 0 0 0 0 0 0 0
FullNghs:      6272.00 ave        6272 max        6272 min
Histogram: 1 0 0 0 0 0 0 0 0 0

Total # of neighbors = 6272
Ave neighs/atom = 98.000000
Neighbor list builds = 1
Dangerous builds = 0
Setting up Verlet run ...
  Unit style    : metal
  Current step  : 100
  Time step     : 0.001
Per MPI rank memory allocation (min/avg/max) = 3.089 | 3.089 | 3.089 Mbytes
Step Time Temp Volume Press 
     100          0.1    553.48802    945.45221    56609.394 
     110         0.11    502.89539    945.45221    58038.637 
     120         0.12    476.85242    945.45221    58752.344 
     130         0.13          513    945.45221    57608.014 
     140         0.14    597.29846    945.45221    55052.639 
     150         0.15     674.5741    945.45221    52748.764 
     160         0.16    700.62812    945.45221     52104.51 
     170         0.17    671.60568    945.45221    53323.948 
     180         0.18    617.13365    945.45221    55564.663 
     190         0.19      576.144    945.45221    57523.071 
     200          0.2    570.59348    945.45221    58370.728 
     210         0.21     595.7998    945.45221    58119.658 
     220         0.22    632.65908    945.45221    57385.769 
     230         0.23    658.96663    945.45221    57004.034 
     240         0.24    658.34247    945.45221    57503.189 
     250         0.25     639.4572    945.45221    58599.349 
     260         0.26    637.01003    945.45221    59201.732 
     270         0.27    673.90173    945.45221    58544.716 
     280         0.28    732.70839    945.45221    57181.123 
     290         0.29    777.93462    945.45221     56203.84 
     300          0.3    785.12706    945.45221    56462.051 
     310         0.31    753.81781    945.45221    58090.892 
     320         0.32    705.96658    945.45221     60336.65 
     330         0.33    669.47913    945.45221    62193.356 
     340         0.34    658.62442    945.45221    63177.778 
     350         0.35    668.11089    945.45221    63335.397 
     360         0.36    684.92577    945.45221    63038.468 
     370         0.37    701.99841    945.45221    62608.099 
     380         0.38    716.11892    945.45221    62247.127 
     390         0.39    726.67296    945.45221    61751.375 
     400          0.4    747.41297    945.45221    60617.259 
     410         0.41    794.14049    945.45221    58529.291 
     420         0.42    854.09633    945.45221    56016.841 
     430         0.43    890.21931    945.45221    54245.706 
     440         0.44    876.88189    945.45221    54015.885 
     450         0.45    826.00797    945.45221    55006.376 
     460         0.46    771.73152    945.45221    56237.437 
     470         0.47    731.84585    945.45221    56976.014 
     480         0.48    704.62705    945.45221    57142.125 
     490         0.49    692.42269    945.45221    56752.187 
     500          0.5    696.67683    945.45221    55894.157 
     510         0.51    701.45503    945.45221    55096.375 
     520         0.52    686.67956    945.45221    54929.876 
     530         0.53    650.91467    945.45221    55484.549 
     540         0.54    610.30742    945.45221    56334.681 
     550         0.55    584.05142    945.45221    56874.326 
     560         0.56    585.86617    945.45221    56593.957 
     570         0.57    615.02578    945.45221    55524.332 
     580         0.58    649.93405    945.45221    54298.206 
     590         0.59    667.76371    945.45221    53564.158 
     600          0.6    666.35698    945.45221    53501.006 
     610         0.61    658.43742    945.45221     53829.44 
     620         0.62    651.50547    945.45221    54216.061 
     630         0.63    640.45269    945.45221    54754.869 
     640         0.64    625.29868    945.45221    55321.971 
     650         0.65    619.90688    945.45221    55521.325 
     660         0.66    633.50788    945.45221    55147.513 
     670         0.67    657.05924    945.45221    54504.386 
     680         0.68    672.50821    945.45221    54136.849 
     690         0.69    669.08239    945.45221    54365.487 
     700          0.7     652.3853    945.45221    55045.492 
     710         0.71    639.00341    945.45221    55592.806 
     720         0.72    644.28671    945.45221    55553.556 
     730         0.73    675.16719    945.45221    54693.561 
     740         0.74    723.94486    945.45221    53386.682 
     750         0.75    767.69427    945.45221    52432.563 
     760         0.76    783.09517    945.45221     52467.48 
     770         0.77    764.59449    945.45221    53643.202 
     780         0.78    729.23943    945.45221    55330.885 
     790         0.79    703.93612    945.45221    56625.378 
     800          0.8    700.69637    945.45221    57106.331 
     810         0.81    707.15195    945.45221    57036.093 
     820         0.82    708.37359    945.45221    56964.455 
     830         0.83    704.13928    945.45221     57017.62 
     840         0.84    698.07191    945.45221    57199.078 
     850         0.85    687.84097    945.45221    57614.896 
     860         0.86    673.95475    945.45221    58227.476 
     870         0.87    665.10551    945.45221     58739.49 
     880         0.88    669.04379    945.45221    58811.144 
     890         0.89     686.0808    945.45221    58465.747 
     900          0.9    709.81492    945.45221    58049.657 
     910         0.91    726.88313    945.45221    57931.835 
     920         0.92    724.84567    945.45221    58372.233 
     930         0.93    711.22988    945.45221    59119.432 
     940         0.94    709.01381    945.45221    59696.239 
     950         0.95    722.63568    945.45221    60028.118 
     960         0.96    731.89756    945.45221    60548.849 
     970         0.97    725.58465    945.45221     61437.12 
     980         0.98    717.30902    945.45221    62440.245 
     990         0.99    723.89264    945.45221    63072.606 
    1000            1    746.18779    945.45221    63253.772 
Loop time of 19.0816 on 1 procs for 900 steps with 64 atoms

Performance: 4.075 ns/day, 5.889 hours/ns, 47.166 timesteps/s
100.0% CPU use with 1 MPI tasks x no OpenMP threads

MPI task timing breakdown:
Section |  min time  |  avg time  |  max time  |%varavg| %total
---------------------------------------------------------------
Pair    | 19.072     | 19.072     | 19.072     |   0.0 | 99.95
Neigh   | 0.0036598  | 0.0036598  | 0.0036598  |   0.0 |  0.02
Comm    | 0.0029347  | 0.0029347  | 0.0029347  |   0.0 |  0.02
Output  | 0.00039006 | 0.00039006 | 0.00039006 |   0.0 |  0.00
Modify  | 0.0014963  | 0.0014963  | 0.0014963  |   0.0 |  0.01
Other   |            | 0.0006735  |            |       |  0.00

Nlocal:        64.0000 ave          64 max          64 min
Histogram: 1 0 0 0 0 0 0 0 0 0
Nghost:        886.000 ave         886 max         886 min
Histogram: 1 0 0 0 0 0 0 0 0 0
Neighs:         0.00000 ave           0 max           0 min
Histogram: 1 0 0 0 0 0 0 0 0 0
FullNghs:      6268.00 ave        6268 max        6268 min
Histogram: 1 0 0 0 0 0 0 0 0 0

Total # of neighbors = 6268
Ave neighs/atom = 97.937500
Neighbor list builds = 16
Dangerous builds = 0
Setting up Verlet run ...
  Unit style    : metal
  Current step  : 1000
  Time step     : 0.001
Per MPI rank memory allocation (min/avg/max) = 3.089 | 3.089 | 3.089 Mbytes
Step Time Temp Volume Press 
    1000            1    746.18779    945.45221    63253.772 
    1100          1.1    658.23325    945.45221    71574.554 
    1200          1.2    919.85354    945.45221    59247.863 
    1300          1.3    667.32148    945.45221    58368.361 
    1400          1.4    662.84621    945.45221    54777.708 
    1500          1.5    699.15691    945.45221    53185.015 
    1600          1.6    574.62714    945.45221    60474.174 
    1700          1.7    721.27527    945.45221    60228.985 
    1800          1.8     639.6369    945.45221    65196.734 
    1900          1.9    784.96557    945.45221    56766.248 
    2000            2    664.11195    945.45221     51429.67 
    2100          2.1    546.75225    945.45221    55296.948 
    2200          2.2    780.74387    945.45221    51627.673 
    2300          2.3    700.15227    945.45221    58123.378 
    2400          2.4    740.32646    945.45221    57793.135 
    2500          2.5    669.19334    945.45221    58354.902 
    2600          2.6     696.9274    945.45221     50583.61 
    2700          2.7    580.31232    945.45221    49438.993 
    2800          2.8    573.45572    945.45221    54015.218 
    2900          2.9    675.49427    945.45221    56325.038 
    3000            3    728.87923    945.45221    57065.793 
    3100          3.1    674.40428    945.45221    58019.285 
    3200          3.2    596.55688    945.45221    55397.037 
    3300          3.3    633.62348    945.45221    55288.339 
    3400          3.4    724.81751    945.45221    60977.363 
    3500          3.5     627.2686    945.45221    63759.428 
    3600          3.6    681.61597    945.45221    58855.547 
    3700          3.7    560.61107    945.45221    56033.083 
    3800          3.8    658.87432    945.45221    49771.744 
    3900          3.9    595.23606    945.45221    53344.509 
    4000            4    730.40369    945.45221    57140.439 
    4100          4.1    638.39873    945.45221    62308.975 
    4200          4.2    729.31004    945.45221    61329.175 
    4300          4.3    695.78784    945.45221    59332.734 
    4400          4.4    610.44996    945.45221    53320.152 
    4500          4.5    549.92458    945.45221    56213.001 
    4600          4.6    681.77357    945.45221    55550.159 
    4700          4.7     750.7803    945.45221    56226.927 
    4800          4.8    647.21682    945.45221    57533.667 
    4900          4.9    678.70978    945.45221    58072.669 
    5000            5    812.57391    945.45221    61798.734 
    5100          5.1    758.38236    945.45221    65889.161 
    5200          5.2    679.82839    945.45221     60241.37 
    5300          5.3    692.31669    945.45221    56516.807 
    5400          5.4    688.88865    945.45221    55802.534 
    5500          5.5    761.76187    945.45221    53478.474 
    5600          5.6    638.38546    945.45221    57760.365 
    5700          5.7    708.59259    945.45221    53051.927 
    5800          5.8     685.9449    945.45221    51543.181 
    5900          5.9    615.09684    945.45221    56781.801 
    6000            6    719.04143    945.45221    58943.447 
    6100          6.1    655.83863    945.45221    61597.872 
    6200          6.2    760.47549    945.45221    59056.659 
    6300          6.3     821.2679    945.45221    56093.751 
    6400          6.4     617.2244    945.45221    56652.385 
    6500          6.5     573.8576    945.45221    56669.789 
    6600          6.6    727.58691    945.45221    58265.613 
    6700          6.7    680.88908    945.45221    62975.599 
    6800          6.8    746.19107    945.45221    59167.667 
    6900          6.9    729.23551    945.45221    50649.749 
    7000            7    623.88483    945.45221    51580.956 
    7100          7.1    731.66473    945.45221    50978.854 
    7200          7.2    731.18364    945.45221    55155.504 
    7300          7.3    684.10533    945.45221    61664.041 
    7400          7.4    670.01128    945.45221    63338.491 
    7500          7.5    734.04189    945.45221    59771.826 
    7600          7.6    566.18222    945.45221    58494.463 
    7700          7.7    639.18926    945.45221    53073.898 
    7800          7.8    626.00944    945.45221     56268.96 
    7900          7.9    778.48426    945.45221    57681.295 
    8000            8    751.25197    945.45221    58725.237 
    8100          8.1    695.73563    945.45221    60532.122 
    8200          8.2    553.83873    945.45221    57435.545 
    8300          8.3    674.76931    945.45221    50968.809 
    8400          8.4    644.95187    945.45221    53505.233 
    8500          8.5     723.1127    945.45221    57785.616 
    8600          8.6    743.06336    945.45221     60245.92 
    8700          8.7    689.84131    945.45221    59452.741 
    8800          8.8    746.43913    945.45221    54713.728 
    8900          8.9    660.76966    945.45221    58560.158 
    9000            9    717.23632    945.45221    55516.966 
    9100          9.1    737.81415    945.45221    54129.117 
    9200          9.2    731.28588    945.45221    56781.444 
    9300          9.3     658.9801    945.45221    57665.313 
    9400          9.4    586.23996    945.45221    53790.244 
    9500          9.5    574.23115    945.45221      51739.8 
    9600          9.6    650.17496    945.45221    56278.162 
    9700          9.7    824.60805    945.45221    55346.661 
    9800          9.8     677.1731    945.45221    60727.902 
    9900          9.9    738.05942    945.45221    58760.509 
   10000           10    656.68447    945.45221    56387.624 
Loop time of 189.047 on 1 procs for 9000 steps with 64 atoms

Performance: 4.113 ns/day, 5.835 hours/ns, 47.607 timesteps/s
100.0% CPU use with 1 MPI tasks x no OpenMP threads

MPI task timing breakdown:
Section |  min time  |  avg time  |  max time  |%varavg| %total
---------------------------------------------------------------
Pair    | 188.96     | 188.96     | 188.96     |   0.0 | 99.95
Neigh   | 0.03527    | 0.03527    | 0.03527    |   0.0 |  0.02
Comm    | 0.02889    | 0.02889    | 0.02889    |   0.0 |  0.02
Output  | 0.00055792 | 0.00055792 | 0.00055792 |   0.0 |  0.00
Modify  | 0.014907   | 0.014907   | 0.014907   |   0.0 |  0.01
Other   |            | 0.006562   |            |       |  0.00

Nlocal:        64.0000 ave          64 max          64 min
Histogram: 1 0 0 0 0 0 0 0 0 0
Nghost:        886.000 ave         886 max         886 min
Histogram: 1 0 0 0 0 0 0 0 0 0
Neighs:         0.00000 ave           0 max           0 min
Histogram: 1 0 0 0 0 0 0 0 0 0
FullNghs:      6330.00 ave        6330 max        6330 min
Histogram: 1 0 0 0 0 0 0 0 0 0

Total # of neighbors = 6330
Ave neighs/atom = 98.906250
Neighbor list builds = 155
Dangerous builds = 0
System init for write_data ...
Total wall time: 0:03:30
