LAMMPS data file via write_data, version 29 Sep 2021, timestep = 10000

64 atoms
1 atom types

0 10.479999999999203 xlo xhi
0 9.075946231660229 ylo yhi
0 9.94 zlo zhi
0 0 0 xy xz yz

Masses

1 65.38

Atoms # atomic

1 1 1.3371449180736215 5.423954390717766 3.428162646383645 0 0 0
2 1 1.547875275071924 5.499341167794056 8.71448947641494 0 0 0
3 1 0.09299663422431102 7.4442390761245605 3.9571536198153825 0 0 0
4 1 10.33292643632828 7.665683463068951 8.22344444630745 -1 0 0
5 1 6.7471413210348645 0.7864433170781977 3.6980874701257784 0 0 0
6 1 6.353453902854801 0.7502583267826459 8.924627766773014 0 0 0
7 1 5.275141762768972 2.9893133379339725 3.873294263228456 0 0 0
8 1 5.153923551379177 2.804853979916947 8.472397668162051 0 0 0
9 1 1.2935755748348754 0.702266927405792 3.829392102929368 0 0 0
10 1 1.2638296396195146 0.7319977554239794 8.609136686748945 0 0 0
11 1 10.472783403413148 3.000855126518681 4.082294817782918 -1 0 0
12 1 10.288914600903944 3.0240165715420715 9.131869574413365 -1 0 0
13 1 3.876860074140331 0.7603303069632233 3.5456886802105414 0 0 0
14 1 3.7566782103292033 0.6848503790523431 8.945625306036684 0 0 0
15 1 2.4904325423161287 3.188742922680328 3.9827570743292595 0 0 0
16 1 2.4600203338642963 2.973930971639984 8.691605599083939 0 0 0
17 1 6.51259857760044 5.401356937594656 3.416149633490343 0 0 0
18 1 6.755943415571094 5.354608035249593 9.033465262067276 0 0 0
19 1 5.228175581050845 7.560818069537396 3.3507604362498005 0 0 0
20 1 5.240357001843738 7.602033650973417 8.301979606356952 0 0 0
21 1 9.011530483382039 5.369317793434554 3.639317160816402 0 0 0
22 1 9.292420762400669 5.241831419457273 8.719830900091933 0 0 0
23 1 7.779079577237808 7.460528946268062 3.636639246470164 0 0 0
24 1 7.71148898503838 7.485605969860101 8.902605279314203 0 0 0
25 1 3.6891255952390503 5.320334211008919 3.3481768831370813 0 0 0
26 1 4.17276602665871 5.264599594569221 8.693184045418958 0 0 0
27 1 2.661918005404713 7.608520789191764 3.8469804096412497 0 0 0
28 1 2.6975975508613117 7.63445541270622 8.731570437865694 0 0 0
29 1 9.269221204750798 0.5633526141385684 4.033917223591557 0 0 0
30 1 9.235969242922797 0.8703555577551132 8.792694765945425 0 0 0
31 1 7.918708343553933 3.0097424259315364 3.9135745722431756 0 0 0
32 1 7.752435453846596 2.8782586567548405 8.339100095797784 0 0 0
33 1 5.023877665831455 1.6390219511498751 1.1970349573233574 0 0 0
34 1 5.167646539531497 1.2356456356187124 6.321162915870572 0 0 0
35 1 4.0969711202006325 3.8236346567663513 0.743919343348013 0 0 0
36 1 3.9441893606784175 4.050003348161758 6.423185838587814 0 0 0
37 1 2.561015743564468 6.091759937988937 1.3594393500171984 0 0 0
38 1 2.68276081462668 6.264233594109549 6.286051610581973 0 0 0
39 1 1.2292986219874062 8.117765803442252 1.536585353150305 0 0 0
40 1 1.3280943474544473 8.391505511760293 6.226862792129812 0 0 0
41 1 0.05570057836132535 1.3240108315230572 1.30718679823479 0 0 0
42 1 0.12014388360810405 1.5530452900506522 6.484569140561082 0 0 0
43 1 2.6368178814701553 1.6231803735347639 1.3632315356318285 0 0 0
44 1 2.5589005159139457 1.836281137117426 6.184779321583074 0 0 0
45 1 1.4177130578216095 3.837056306561791 1.0976457042640013 0 0 0
46 1 1.3543746842086644 4.000497383700268 6.427439413247767 0 0 0
47 1 0.044759358982098 5.890665763327014 1.4027604156641764 0 0 0
48 1 10.398261037379463 5.842413294208121 6.04984340846248 -1 0 0
49 1 9.029556283937128 3.7130226685579673 1.5830291209803615 0 0 0
50 1 9.166870502198803 3.619482216800758 6.203285875787289 0 0 0
51 1 7.9872014677946055 6.156812558008744 1.2550341757194667 0 0 0
52 1 7.949648860202128 5.783189695545087 6.766507544737196 0 0 0
53 1 6.495414800766117 8.411965937683437 1.2732159739160476 0 0 0
54 1 6.7449181490510215 8.031430389347122 5.86570101168 0 0 0
55 1 9.268241410917247 8.297587364789738 1.1165788600792168 0 0 0
56 1 9.147920686664374 8.105474719590568 6.1073400537532185 0 0 0
57 1 8.059046167413154 1.4966236881319366 0.9720744083011879 0 0 0
58 1 7.979328996518788 1.4347943633398526 6.15151815635601 0 0 0
59 1 6.4603821741895775 3.7603329278660493 1.305742198962749 0 0 0
60 1 6.514129868040017 3.8093452311073506 6.1722333198353025 0 0 0
61 1 5.145225796036753 6.267777840159774 1.0697366204965801 0 0 0
62 1 5.307853713119666 6.141984394440339 6.047085015445476 0 0 0
63 1 3.804996278916531 8.478827406536125 1.1684012374039028 0 0 0
64 1 4.005705644072327 8.344109087128766 5.800845370642205 0 0 0

Velocities

1 4.0695368948520745 3.695920186769561 -7.681819981055074
2 4.743717206826334 -0.8170858919868462 -1.9836775868045424
3 -2.150374772181629 -3.599025921904239 -1.3200921578947713
4 1.8864806929878424 3.9069215532209842 -1.626405093923536
5 -4.964596316207893 -0.8560134944901194 3.6648162591478233
6 2.375141177225455 -1.906087622099088 4.201101838265848
7 5.967648837102837 5.045103019709581 2.1512142754001493
8 -0.8965051075631222 0.6254899015584678 1.4156848762525378
9 2.614432241953451 5.058697042792648 -1.2937192780879447
10 -1.9903045346530972 3.249666825267721 -0.16324933788740995
11 4.565611499335972 2.7436874521783063 0.7016158814666317
12 0.7701211136335117 -0.5747683381577252 -4.202114860063336
13 -2.1587472284437372 -0.46139519921563626 0.32045912861279036
14 3.099244903072489 -3.4801022958122894 -0.06027267459016649
15 -1.122572985077222 -2.057239690368937 -0.7772678090099777
16 -1.062585685637183 -0.9305032494569926 -3.4905800941418974
17 -5.075860180345493 -2.589341271693984 -3.089189667923678
18 -2.864736856315086 0.07308632961891708 -0.7869060085523031
19 3.866050056703253 0.6406734900334812 2.0313709190283165
20 4.932326668282178 1.7157111190216137 1.5771098200158769
21 -4.356530261973851 0.6755653291244117 -5.886499579622282
22 0.8869729079898673 2.8136087061594686 -0.655310072385603
23 -1.5462273804408821 -4.387505515179159 -3.4633120392019783
24 0.4017088350217878 2.7724969572693774 0.5872304577674354
25 -6.038809246416918 -3.0171004543726845 -0.9584164559741167
26 4.024350746371048 -0.1106077809019645 0.8758476145975155
27 4.458064626394561 1.5123146845291588 2.8548805913331776
28 -8.758148989675108 -0.3115471507991866 1.4941792184858513
29 -3.2446380633779213 2.793554759004103 -0.7435044181248454
30 -1.8551953841313422 -1.4696764322085938 -0.10908109350084119
31 0.8104852671942285 -1.381302649618417 5.339646029326233
32 2.1920713834597927 -3.236194285577376 1.7329296041024462
33 0.6301922370655081 -1.8778160495067178 0.790749961576275
34 -0.4710046511270448 -1.9792984583655626 -4.797042969959888
35 0.4582322915907724 1.5012338006918584 2.2383660141752255
36 0.6314889286230598 0.4362335694095926 1.6308113893528615
37 -1.2130042069807219 2.426031775358988 -2.096420934719843
38 -0.7701913046023645 4.394610638593773 1.8071450225187222
39 -2.022677056133701 -0.6438949735831867 -0.8839587205549304
40 -5.006329039254165 -2.801330496825014 -0.13990286641859406
41 -0.02377537391885382 -0.9913154090801656 2.8084209635929915
42 2.9803839875947316 2.509114221472371 2.736442076522211
43 0.6148254562090105 -1.5062342161322009 -0.25288443958613527
44 0.5373739936087512 -2.179794363241383 0.2907819626123246
45 -2.5924162820039682 -0.46794753821244267 -2.8917553908217584
46 -1.9544294154242785 1.6799348048080471 4.505016689942308
47 3.567130437630667 3.7645112209286036 -1.7573375574931154
48 2.9419181665679672 -2.0288623797122054 0.30368498792969817
49 0.3760027312776646 -0.5513325980257586 -0.7792631000485641
50 5.0424047348272865 -0.6189131651789618 -1.9495022758351992
51 -3.530509136340443 -6.095711776637036 2.1152475168552
52 0.18379886318695102 -2.8869165053160675 2.9698887587803493
53 -3.3508778001146875 2.8816184691073308 -4.040843149666887
54 0.6653366900917776 -5.517395052556067 2.0712190920509164
55 -1.5283767830707142 1.506053751707518 2.0170457467752296
56 -0.872976936099153 -0.7292695919540962 -1.0165384532822266
57 0.6426550048697188 3.181587711936519 -0.7275431165454708
58 -2.0082872507694964 -1.8583247468940447 8.238035912611085
59 1.5103683279454623 1.311672083982146 1.425177848696104
60 -6.509520121856983 -1.2966360889619513 -1.0208805845486968
61 -4.840334135554908 -2.1297987874713433 -3.124708794816757
62 4.819617270603155 -0.44824876144417297 -2.52118980282603
63 1.5500576077419264 0.18735108942871215 1.6143951739484312
64 5.964790697850761 4.6920877092586775 -0.21932526587453072
