ITEM: TIMESTEP
10000
ITEM: NUMBER OF ATOMS
64
ITEM: BOX BOUNDS xy xz yz pp pp pp
0.0000000000000000e+00 1.0479999999999203e+01 0.0000000000000000e+00
0.0000000000000000e+00 9.0759462316602288e+00 0.0000000000000000e+00
0.0000000000000000e+00 9.9399999999999995e+00 0.0000000000000000e+00
ITEM: ATOMS id type x y z
1 1 1.33714 5.42395 3.42816
2 1 1.54788 5.49934 8.71449
3 1 0.0929966 7.44424 3.95715
4 1 10.3329 7.66568 8.22344
5 1 6.74714 0.786443 3.69809
6 1 6.35345 0.750258 8.92463
7 1 5.27514 2.98931 3.87329
8 1 5.15392 2.80485 8.4724
9 1 1.29358 0.702267 3.82939
10 1 1.26383 0.731998 8.60914
11 1 10.4728 3.00086 4.08229
12 1 10.2889 3.02402 9.13187
13 1 3.87686 0.76033 3.54569
14 1 3.75668 0.68485 8.94563
15 1 2.49043 3.18874 3.98276
16 1 2.46002 2.97393 8.69161
17 1 6.5126 5.40136 3.41615
18 1 6.75594 5.35461 9.03347
19 1 5.22818 7.56082 3.35076
20 1 5.24036 7.60203 8.30198
21 1 9.01153 5.36932 3.63932
22 1 9.29242 5.24183 8.71983
23 1 7.77908 7.46053 3.63664
24 1 7.71149 7.48561 8.90261
25 1 3.68913 5.32033 3.34818
26 1 4.17277 5.2646 8.69318
27 1 2.66192 7.60852 3.84698
28 1 2.6976 7.63446 8.73157
29 1 9.26922 0.563353 4.03392
30 1 9.23597 0.870356 8.79269
31 1 7.91871 3.00974 3.91357
32 1 7.75244 2.87826 8.3391
33 1 5.02388 1.63902 1.19703
34 1 5.16765 1.23565 6.32116
35 1 4.09697 3.82363 0.743919
36 1 3.94419 4.05 6.42319
37 1 2.56102 6.09176 1.35944
38 1 2.68276 6.26423 6.28605
39 1 1.2293 8.11777 1.53659
40 1 1.32809 8.39151 6.22686
41 1 0.0557006 1.32401 1.30719
42 1 10.6001 1.55305 6.48457
43 1 2.63682 1.62318 1.36323
44 1 2.5589 1.83628 6.18478
45 1 1.41771 3.83706 1.09765
46 1 1.35437 4.0005 6.42744
47 1 10.5248 5.89067 1.40276
48 1 10.3983 5.84241 6.04984
49 1 9.02956 3.71302 1.58303
50 1 9.16687 3.61948 6.20329
51 1 7.9872 6.15681 1.25503
52 1 7.94965 5.78319 6.76651
53 1 6.49541 8.41197 1.27322
54 1 6.74492 8.03143 5.8657
55 1 9.26824 8.29759 1.11658
56 1 9.14792 8.10547 6.10734
57 1 8.05905 1.49662 0.972074
58 1 7.97933 1.43479 6.15152
59 1 6.46038 3.76033 1.30574
60 1 6.51413 3.80935 6.17223
61 1 5.14523 6.26778 1.06974
62 1 5.30785 6.14198 6.04709
63 1 3.805 8.47883 1.1684
64 1 4.00571 8.34411 5.80085
