 # Something
 4 atoms
 1 atom types
 0   4.1250000000000009      xlo xhi 
 0   4.1250000000000009      ylo yhi 
 0   4.1250000000000009      zlo zhi 
   0.0000000000000000        0.0000000000000000        0.0000000000000000      xy xz yz
 Atoms
 
           1           1   0.0000000000000000        0.0000000000000000        0.0000000000000000     
           2           1   2.0625000000000004        0.0000000000000000        2.0625000000000004     
           3           1   0.0000000000000000        2.0625000000000004        2.0625000000000004     
           4           1   2.0625000000000004        2.0625000000000004        0.0000000000000000     
