LAMMPS (29 Sep 2021 - Update 1)
Reading data file ...
  triclinic box = (0.0000000 0.0000000 0.0000000) to (10.640000 9.2145103 10.220000) with tilt (0.0000000 0.0000000 0.0000000)
  1 by 1 by 1 MPI processor grid
  reading atoms ...
  64 atoms
  read_data CPU = 0.001 seconds
Neighbor list info ...
  update every 1 steps, delay 0 steps, check yes
  max neighbors/atom: 2000, page size: 100000
  master list distance cutoff = 7
  ghost atom cutoff = 7
  binsize = 3.5, bins = 4 3 3
  1 neighbor lists, perpetual/occasional/extra = 1 0 0
  (1) pair mlip, perpetual
      attributes: full, newton on
      pair build: full/bin/atomonly
      stencil: full/bin/3d
      bin: standard
Setting up Verlet run ...
  Unit style    : metal
  Current step  : 0
  Time step     : 0.001
Per MPI rank memory allocation (min/avg/max) = 3.089 | 3.089 | 3.089 Mbytes
Step Time Temp Volume Press 
       0            0         1380    1001.9932   -11996.156 
       1        0.001    1379.1647    1001.9932   -11967.258 
       2        0.002    1376.6649    1001.9932   -11880.744 
       3        0.003    1372.5162    1001.9932   -11737.001 
       4        0.004    1366.7395    1001.9932   -11536.589 
       5        0.005    1359.3616    1001.9932   -11280.244 
       6        0.006    1350.4147    1001.9932   -10968.977 
       7        0.007    1339.9366    1001.9932   -10604.587 
       8        0.008    1327.9708    1001.9932   -10189.059 
       9        0.009    1314.5669    1001.9932    -9726.812 
      10         0.01    1299.7799    1001.9932    -9218.336 
Loop time of 0.216975 on 1 procs for 10 steps with 64 atoms

Performance: 3.982 ns/day, 6.027 hours/ns, 46.088 timesteps/s
89.9% CPU use with 1 MPI tasks x no OpenMP threads

MPI task timing breakdown:
Section |  min time  |  avg time  |  max time  |%varavg| %total
---------------------------------------------------------------
Pair    | 0.21687    | 0.21687    | 0.21687    |   0.0 | 99.95
Neigh   | 0          | 0          | 0          |   0.0 |  0.00
Comm    | 3.3085e-05 | 3.3085e-05 | 3.3085e-05 |   0.0 |  0.02
Output  | 3.9759e-05 | 3.9759e-05 | 3.9759e-05 |   0.0 |  0.02
Modify  | 2.4719e-05 | 2.4719e-05 | 2.4719e-05 |   0.0 |  0.01
Other   |            | 1.065e-05  |            |       |  0.00

Nlocal:        64.0000 ave          64 max          64 min
Histogram: 1 0 0 0 0 0 0 0 0 0
Nghost:        886.000 ave         886 max         886 min
Histogram: 1 0 0 0 0 0 0 0 0 0
Neighs:         0.00000 ave           0 max           0 min
Histogram: 1 0 0 0 0 0 0 0 0 0
FullNghs:      5504.00 ave        5504 max        5504 min
Histogram: 1 0 0 0 0 0 0 0 0 0

Total # of neighbors = 5504
Ave neighs/atom = 86.000000
Neighbor list builds = 0
Dangerous builds = 0
Setting up Verlet run ...
  Unit style    : metal
  Current step  : 10
  Time step     : 0.001
Per MPI rank memory allocation (min/avg/max) = 3.089 | 3.089 | 3.089 Mbytes
Step Time Temp Volume Press 
      10         0.01    1299.7799    1001.9932    -9218.336 
      11        0.011    1283.6698    1001.9932    -8667.748 
      12        0.012    1266.3013    1001.9932   -8074.8224 
      13        0.013    1247.7428    1001.9932   -7439.8648 
      14        0.014    1228.0669    1001.9932   -6766.3235 
      15        0.015    1207.3508    1001.9932     -6057.52 
      16        0.016    1185.6749    1001.9932   -5313.8931 
      17        0.017    1163.1232    1001.9932   -4537.8696 
      18        0.018    1139.7826    1001.9932   -3731.4244 
      19        0.019    1115.7426    1001.9932   -2897.5645 
      20         0.02    1091.0946    1001.9932   -2039.2205 
      21        0.021    1065.9314    1001.9932   -1159.5954 
      22        0.022    1040.3472    1001.9932   -266.32288 
      23        0.023    1014.4364    1001.9932    636.15935 
      24        0.024    988.29473    1001.9932    1547.2602 
      25        0.025    962.01853    1001.9932    2464.8186 
      26        0.026    935.70412    1001.9932    3385.3249 
      27        0.027    909.44675    1001.9932    4306.1615 
      28        0.028    883.34027    1001.9932    5224.7434 
      29        0.029    857.47678    1001.9932    6139.3675 
      30         0.03    831.94588    1001.9932    7047.0066 
      31        0.031    806.83395    1001.9932    7944.7813 
      32        0.032    782.22351    1001.9932     8829.152 
      33        0.033    758.19238    1001.9932    9695.4555 
      34        0.034    734.81339    1001.9932    10542.929 
      35        0.035     712.1542    1001.9932    11369.176 
      36        0.036    690.27681    1001.9932    12172.299 
      37        0.037    669.23714    1001.9932    12950.199 
      38        0.038    649.08463    1001.9932    13701.998 
      39        0.039    629.86192    1001.9932    14424.736 
      40         0.04    611.60451    1001.9932    15117.007 
      41        0.041    594.34084    1001.9932    15777.312 
      42        0.042    578.09243    1001.9932    16407.005 
      43        0.043    562.87393    1001.9932    17004.731 
      44        0.044    548.69302    1001.9932    17568.887 
      45        0.045    535.55052    1001.9932    18098.297 
      46        0.046    523.44081    1001.9932    18593.331 
      47        0.047    512.35218    1001.9932    19054.257 
      48        0.048    502.26716    1001.9932    19481.489 
      49        0.049    493.16286    1001.9932    19874.149 
      50         0.05    485.01142    1001.9932    20234.752 
      51        0.051    477.78075    1001.9932    20562.602 
      52        0.052    471.43496    1001.9932    20858.599 
      53        0.053    465.93472    1001.9932    21122.345 
      54        0.054    461.23802    1001.9932    21357.417 
      55        0.055    457.30084    1001.9932    21565.257 
      56        0.056    454.07748    1001.9932    21746.352 
      57        0.057    451.52106    1001.9932    21902.578 
      58        0.058    449.58406    1001.9932    22033.954 
      59        0.059    448.21894    1001.9932     22143.39 
      60         0.06    447.37859    1001.9932    22232.092 
      61        0.061    447.01654    1001.9932    22299.322 
      62        0.062    447.08733    1001.9932    22347.183 
      63        0.063    447.54715    1001.9932    22378.701 
      64        0.064    448.35406    1001.9932     22395.73 
      65        0.065    449.46801    1001.9932    22399.438 
      66        0.066    450.85127    1001.9932    22391.229 
      67        0.067    452.46845    1001.9932    22372.469 
      68        0.068    454.28657    1001.9932    22343.446 
      69        0.069    456.27523    1001.9932    22305.344 
      70         0.07    458.40656    1001.9932    22258.369 
      71        0.071    460.65508    1001.9932    22202.807 
      72        0.072    462.99792    1001.9932    22141.369 
      73        0.073    465.41469    1001.9932    22073.606 
      74        0.074    467.88721    1001.9932    22000.561 
      75        0.075    470.39963    1001.9932     21923.55 
      76        0.076    472.93812    1001.9932    21841.827 
      77        0.077    475.49089    1001.9932    21757.713 
      78        0.078    478.04813    1001.9932    21672.404 
      79        0.079    480.60165    1001.9932    21586.003 
      80         0.08    483.14478    1001.9932     21498.13 
      81        0.081    485.67209    1001.9932      21408.9 
      82        0.082    488.17885    1001.9932     21315.79 
      83        0.083     490.6613    1001.9932    21221.364 
      84        0.084    493.11712    1001.9932    21127.131 
      85        0.085    495.54486    1001.9932    21033.124 
      86        0.086    497.94379    1001.9932    20939.481 
      87        0.087     500.3138    1001.9932    20845.986 
      88        0.088    502.65522    1001.9932    20752.145 
      89        0.089     504.9689    1001.9932    20658.828 
      90         0.09    507.25616    1001.9932    20565.034 
      91        0.091     509.5185    1001.9932    20470.149 
      92        0.092    511.75795    1001.9932    20374.775 
      93        0.093    513.97704    1001.9932    20278.413 
      94        0.094    516.17882    1001.9932    20182.638 
      95        0.095    518.36691    1001.9932    20087.047 
      96        0.096    520.54524    1001.9932    19991.617 
      97        0.097    522.71825    1001.9932    19895.718 
      98        0.098    524.89105    1001.9932    19798.887 
      99        0.099    527.06914    1001.9932    19701.821 
     100          0.1    529.25821    1001.9932    19603.465 
Loop time of 1.84655 on 1 procs for 90 steps with 64 atoms

Performance: 4.211 ns/day, 5.699 hours/ns, 48.740 timesteps/s
99.9% CPU use with 1 MPI tasks x no OpenMP threads

MPI task timing breakdown:
Section |  min time  |  avg time  |  max time  |%varavg| %total
---------------------------------------------------------------
Pair    | 1.8455     | 1.8455     | 1.8455     |   0.0 | 99.94
Neigh   | 0.00019781 | 0.00019781 | 0.00019781 |   0.0 |  0.01
Comm    | 0.00030234 | 0.00030234 | 0.00030234 |   0.0 |  0.02
Output  | 0.00033638 | 0.00033638 | 0.00033638 |   0.0 |  0.02
Modify  | 0.00016646 | 0.00016646 | 0.00016646 |   0.0 |  0.01
Other   |            | 7.473e-05  |            |       |  0.00

Nlocal:        64.0000 ave          64 max          64 min
Histogram: 1 0 0 0 0 0 0 0 0 0
Nghost:        886.000 ave         886 max         886 min
Histogram: 1 0 0 0 0 0 0 0 0 0
Neighs:         0.00000 ave           0 max           0 min
Histogram: 1 0 0 0 0 0 0 0 0 0
FullNghs:      5766.00 ave        5766 max        5766 min
Histogram: 1 0 0 0 0 0 0 0 0 0

Total # of neighbors = 5766
Ave neighs/atom = 90.093750
Neighbor list builds = 1
Dangerous builds = 0
Setting up Verlet run ...
  Unit style    : metal
  Current step  : 100
  Time step     : 0.001
Per MPI rank memory allocation (min/avg/max) = 3.089 | 3.089 | 3.089 Mbytes
Step Time Temp Volume Press 
     100          0.1    529.25821    1001.9932    19603.465 
     110         0.11    553.24323    1001.9932    18506.837 
     120         0.12    585.11307    1001.9932    17131.811 
     130         0.13    623.18574    1001.9932    15707.025 
     140         0.14    651.94502    1001.9932    14782.212 
     150         0.15    652.97548    1001.9932    14867.603 
     160         0.16    624.81849    1001.9932    16013.463 
     170         0.17    588.38112    1001.9932    17547.206 
     180         0.18    569.24231    1001.9932    18723.737 
     190         0.19    574.66648    1001.9932    19290.127 
     200          0.2    591.91726    1001.9932    19412.978 
     210         0.21     610.9053    1001.9932    19296.062 
     220         0.22    639.98486    1001.9932    18745.481 
     230         0.23    685.95856    1001.9932    17718.026 
     240         0.24    726.85545    1001.9932    16870.055 
     250         0.25    733.61873    1001.9932    16982.706 
     260         0.26    708.61021    1001.9932    18062.138 
     270         0.27    682.86957    1001.9932    19136.169 
     280         0.28    681.21416    1001.9932    19527.221 
     290         0.29    700.37443    1001.9932    19261.517 
     300          0.3    719.69318    1001.9932    18901.874 
     310         0.31    722.47185    1001.9932    19034.951 
     320         0.32    712.07745    1001.9932    19607.895 
     330         0.33    707.44141    1001.9932    20124.046 
     340         0.34    715.38487    1001.9932    20287.964 
     350         0.35    726.25606    1001.9932    20304.689 
     360         0.36    733.81533    1001.9932    20398.239 
     370         0.37    735.04401    1001.9932    20595.268 
     380         0.38    725.54207    1001.9932    21001.658 
     390         0.39    705.56948    1001.9932    21636.104 
     400          0.4    685.07645    1001.9932    22147.778 
     410         0.41     679.0822    1001.9932    22187.969 
     420         0.42    692.19158    1001.9932    21708.909 
     430         0.43    710.92091    1001.9932    21143.889 
     440         0.44    723.81414    1001.9932    20742.489 
     450         0.45    734.55797    1001.9932    20419.911 
     460         0.46    749.07206    1001.9932    19866.395 
     470         0.47    767.67055    1001.9932    19016.933 
     480         0.48    781.43016    1001.9932    18126.772 
     490         0.49    778.47864    1001.9932    17680.881 
     500          0.5    757.50774    1001.9932    17793.315 
     510         0.51    721.42767    1001.9932    18397.529 
     520         0.52    669.29473    1001.9932    19428.429 
     530         0.53    608.01164    1001.9932    20647.162 
     540         0.54    560.00172    1001.9932    21299.638 
     550         0.55    550.64646    1001.9932    20687.752 
     560         0.56    586.09807    1001.9932    18636.371 
     570         0.57    643.24811    1001.9932    15927.949 
     580         0.58    687.72907    1001.9932    13659.342 
     590         0.59    698.59943    1001.9932    12603.499 
     600          0.6    675.84617    1001.9932    12799.079 
     610         0.61    636.41869    1001.9932    13666.834 
     620         0.62    604.86011    1001.9932    14498.267 
     630         0.63    593.40623    1001.9932    14838.888 
     640         0.64    588.92304    1001.9932     15007.04 
     650         0.65    574.16442    1001.9932     15433.58 
     660         0.66    554.66918    1001.9932    15950.521 
     670         0.67    552.82728    1001.9932    15984.031 
     680         0.68    581.30813    1001.9932    15147.432 
     690         0.69    628.92104    1001.9932    13841.305 
     700          0.7    669.04031    1001.9932    12821.715 
     710         0.71    681.48171    1001.9932    12665.306 
     720         0.72    670.91547    1001.9932    13201.985 
     730         0.73    661.58126    1001.9932    13743.592 
     740         0.74    672.00084    1001.9932    13780.751 
     750         0.75    697.88136    1001.9932    13335.272 
     760         0.76    717.18929    1001.9932    13036.376 
     770         0.77    710.79296    1001.9932    13522.993 
     780         0.78    679.38314    1001.9932    14743.675 
     790         0.79    643.16151    1001.9932    16083.875 
     800          0.8    629.52566    1001.9932    16696.957 
     810         0.81    650.96484    1001.9932    16343.115 
     820         0.82    688.92301    1001.9932    15481.571 
     830         0.83    714.44557    1001.9932    14969.971 
     840         0.84    716.55918    1001.9932    15220.495 
     850         0.85    703.47874    1001.9932    15911.367 
     860         0.86    689.92255    1001.9932    16592.505 
     870         0.87    685.90088    1001.9932    16943.566 
     880         0.88    691.10342    1001.9932    16972.854 
     890         0.89    697.70272    1001.9932    16951.994 
     900          0.9    696.74812    1001.9932     17185.73 
     910         0.91     682.4014    1001.9932    17750.417 
     920         0.92    656.07044    1001.9932    18716.733 
     930         0.93     628.9782    1001.9932    19657.375 
     940         0.94    617.10306    1001.9932    20085.548 
     950         0.95    628.52685    1001.9932    19746.195 
     960         0.96    659.44781    1001.9932    18784.685 
     970         0.97    701.08735    1001.9932    17464.223 
     980         0.98    743.61817    1001.9932    16135.129 
     990         0.99    774.51925    1001.9932    15202.631 
    1000            1    779.96698    1001.9932    15156.356 
Loop time of 18.1754 on 1 procs for 900 steps with 64 atoms

Performance: 4.278 ns/day, 5.610 hours/ns, 49.518 timesteps/s
100.0% CPU use with 1 MPI tasks x no OpenMP threads

MPI task timing breakdown:
Section |  min time  |  avg time  |  max time  |%varavg| %total
---------------------------------------------------------------
Pair    | 18.167     | 18.167     | 18.167     |   0.0 | 99.95
Neigh   | 0.0030259  | 0.0030259  | 0.0030259  |   0.0 |  0.02
Comm    | 0.0029976  | 0.0029976  | 0.0029976  |   0.0 |  0.02
Output  | 0.00040918 | 0.00040918 | 0.00040918 |   0.0 |  0.00
Modify  | 0.0015668  | 0.0015668  | 0.0015668  |   0.0 |  0.01
Other   |            | 0.0006979  |            |       |  0.00

Nlocal:        64.0000 ave          64 max          64 min
Histogram: 1 0 0 0 0 0 0 0 0 0
Nghost:        877.000 ave         877 max         877 min
Histogram: 1 0 0 0 0 0 0 0 0 0
Neighs:         0.00000 ave           0 max           0 min
Histogram: 1 0 0 0 0 0 0 0 0 0
FullNghs:      5780.00 ave        5780 max        5780 min
Histogram: 1 0 0 0 0 0 0 0 0 0

Total # of neighbors = 5780
Ave neighs/atom = 90.312500
Neighbor list builds = 15
Dangerous builds = 0
Setting up Verlet run ...
  Unit style    : metal
  Current step  : 1000
  Time step     : 0.001
Per MPI rank memory allocation (min/avg/max) = 3.089 | 3.089 | 3.089 Mbytes
Step Time Temp Volume Press 
    1000            1    779.96698    1001.9932    15156.356 
    1100          1.1    678.59909    1001.9932    18544.612 
    1200          1.2    689.51032    1001.9932    21415.538 
    1300          1.3    800.74069    1001.9932    22853.257 
    1400          1.4    655.69602    1001.9932    25086.218 
    1500          1.5    571.62789    1001.9932    22647.709 
    1600          1.6    592.80951    1001.9932     22555.11 
    1700          1.7    719.72457    1001.9932    20441.577 
    1800          1.8    718.84681    1001.9932    20966.285 
    1900          1.9    573.68995    1001.9932    19325.729 
    2000            2    711.11421    1001.9932    12272.748 
    2100          2.1    734.98942    1001.9932    13546.643 
    2200          2.2    857.01737    1001.9932    16510.118 
    2300          2.3    683.80116    1001.9932    25891.038 
    2400          2.4    939.38134    1001.9932    22085.882 
    2500          2.5    705.70061    1001.9932    23939.886 
    2600          2.6    746.01708    1001.9932    17451.694 
    2700          2.7    703.30649    1001.9932    16352.884 
    2800          2.8    651.95199    1001.9932    14893.431 
    2900          2.9    592.81912    1001.9932    15524.475 
    3000            3    668.63988    1001.9932    15696.621 
    3100          3.1    792.22371    1001.9932    19309.556 
    3200          3.2    792.13727    1001.9932    18689.557 
    3300          3.3    587.52665    1001.9932    18937.195 
    3400          3.4    749.26528    1001.9932    10588.529 
    3500          3.5    595.09801    1001.9932    19157.356 
    3600          3.6    659.65908    1001.9932    18714.375 
    3700          3.7    725.00836    1001.9932    17086.338 
    3800          3.8    661.42709    1001.9932    20288.153 
    3900          3.9    782.62473    1001.9932    20899.353 
    4000            4    870.11595    1001.9932    24127.575 
    4100          4.1    626.69775    1001.9932    25369.628 
    4200          4.2    625.81702    1001.9932    20142.367 
    4300          4.3    664.40934    1001.9932    17281.933 
    4400          4.4    676.45781    1001.9932    13357.424 
    4500          4.5    577.34052    1001.9932    15046.065 
    4600          4.6    576.32997    1001.9932    21426.985 
    4700          4.7    771.00051    1001.9932    20555.243 
    4800          4.8    655.92447    1001.9932    20807.276 
    4900          4.9    599.59536    1001.9932    19234.358 
    5000            5    747.96704    1001.9932    13782.667 
    5100          5.1    563.82162    1001.9932    17875.159 
    5200          5.2    549.54726    1001.9932    15866.181 
    5300          5.3    722.03968    1001.9932    13831.129 
    5400          5.4     800.3261    1001.9932    17370.595 
    5500          5.5    705.74525    1001.9932    19766.085 
    5600          5.6    556.07054    1001.9932    20877.085 
    5700          5.7    745.85687    1001.9932    12592.862 
    5800          5.8    702.44026    1001.9932    24531.089 
    5900          5.9    860.14277    1001.9932    20948.923 
    6000            6    774.46627    1001.9932    15576.045 
    6100          6.1    710.59207    1001.9932    14610.654 
    6200          6.2    711.33302    1001.9932    12947.152 
    6300          6.3     603.1748    1001.9932    15924.166 
    6400          6.4    632.52674    1001.9932    15796.086 
    6500          6.5     680.4542    1001.9932    22005.808 
    6600          6.6    800.00064    1001.9932    18239.642 
    6700          6.7    616.58897    1001.9932    19727.218 
    6800          6.8    576.25034    1001.9932    20625.015 
    6900          6.9    723.89105    1001.9932    16073.527 
    7000            7    672.57203    1001.9932    19708.592 
    7100          7.1    748.89955    1001.9932    16688.502 
    7200          7.2     620.7979    1001.9932     19507.83 
    7300          7.3    827.54868    1001.9932    13504.773 
    7400          7.4    651.23135    1001.9932    17520.388 
    7500          7.5    711.20321    1001.9932    17610.378 
    7600          7.6    737.80395    1001.9932    22345.643 
    7700          7.7    731.91109    1001.9932    24922.917 
    7800          7.8    641.90908    1001.9932    23052.155 
    7900          7.9    732.98511    1001.9932    11861.902 
    8000            8    569.17278    1001.9932    16461.445 
    8100          8.1    670.74454    1001.9932    14827.965 
    8200          8.2     683.3717    1001.9932    14173.663 
    8300          8.3    533.26627    1001.9932    23350.507 
    8400          8.4    780.52014    1001.9932     18603.73 
    8500          8.5    723.11493    1001.9932    17537.672 
    8600          8.6    728.17769    1001.9932    15902.493 
    8700          8.7    607.94678    1001.9932    20360.154 
    8800          8.8    676.14876    1001.9932    21589.156 
    8900          8.9    821.09127    1001.9932    23187.546 
    9000            9    774.90625    1001.9932    23957.184 
    9100          9.1    674.61654    1001.9932    18228.686 
    9200          9.2    670.31272    1001.9932    17525.554 
    9300          9.3    614.79905    1001.9932    18559.607 
    9400          9.4    660.74646    1001.9932    18888.813 
    9500          9.5    701.11159    1001.9932    18691.208 
    9600          9.6    718.17766    1001.9932    21157.108 
    9700          9.7     721.7522    1001.9932    21848.427 
    9800          9.8    705.43873    1001.9932      18788.5 
    9900          9.9    595.60974    1001.9932    14371.315 
   10000           10    645.09782    1001.9932    13338.528 
Loop time of 191.848 on 1 procs for 9000 steps with 64 atoms

Performance: 4.053 ns/day, 5.921 hours/ns, 46.912 timesteps/s
100.0% CPU use with 1 MPI tasks x no OpenMP threads

MPI task timing breakdown:
Section |  min time  |  avg time  |  max time  |%varavg| %total
---------------------------------------------------------------
Pair    | 191.76     | 191.76     | 191.76     |   0.0 | 99.95
Neigh   | 0.033818   | 0.033818   | 0.033818   |   0.0 |  0.02
Comm    | 0.032648   | 0.032648   | 0.032648   |   0.0 |  0.02
Output  | 0.00055031 | 0.00055031 | 0.00055031 |   0.0 |  0.00
Modify  | 0.016013   | 0.016013   | 0.016013   |   0.0 |  0.01
Other   |            | 0.007106   |            |       |  0.00

Nlocal:        64.0000 ave          64 max          64 min
Histogram: 1 0 0 0 0 0 0 0 0 0
Nghost:        886.000 ave         886 max         886 min
Histogram: 1 0 0 0 0 0 0 0 0 0
Neighs:         0.00000 ave           0 max           0 min
Histogram: 1 0 0 0 0 0 0 0 0 0
FullNghs:      5732.00 ave        5732 max        5732 min
Histogram: 1 0 0 0 0 0 0 0 0 0

Total # of neighbors = 5732
Ave neighs/atom = 89.562500
Neighbor list builds = 161
Dangerous builds = 0
System init for write_data ...
Total wall time: 0:03:32
