LAMMPS data file via write_data, version 29 Sep 2021, timestep = 10000

64 atoms
1 atom types

0 10.640000000001363 xlo xhi
0 9.214510296267605 ylo yhi
0 10.22 zlo zhi
0 0 0 xy xz yz

Masses

1 65.38

Atoms # atomic

1 1 1.3359938475994635 5.711643272221963 3.642328451253083 0 0 0
2 1 1.060438508639145 5.291804646411016 8.786994406141195 0 0 0
3 1 0.07735175751603615 7.9850243802885945 3.497632259276886 0 0 0
4 1 10.638639567402736 7.666680716186307 8.697346190378523 -1 0 0
5 1 6.529405757424586 0.7754782161681453 3.9478756004027917 0 0 0
6 1 6.801149492017415 0.8495696468329406 9.26446657545165 0 0 0
7 1 5.199729152916601 2.84396577692847 4.079696971599355 0 0 0
8 1 5.143577991093006 2.6770766693676573 9.159288829728473 0 0 0
9 1 1.2786540135589348 0.9905925777963428 3.8903970335235654 0 0 0
10 1 1.4863394709750375 0.9624236941679506 8.826568604246985 0 0 0
11 1 10.499442067395542 3.3070678606309185 3.8324834865760558 -1 0 0
12 1 0.10923664308436151 2.990178624307031 9.112601735349278 0 0 0
13 1 4.069261819688215 0.8286010741216753 3.7013203143695623 0 0 0
14 1 4.024372641598022 0.697985959212571 9.210855714007364 0 0 0
15 1 2.465031718508475 3.203210782242671 3.674284196065712 0 0 0
16 1 2.8365637070907046 3.324201065777627 8.632143979189074 0 0 0
17 1 6.441911312452344 5.284055600106313 4.192068739548005 0 0 0
18 1 6.83615650197825 5.272610853578633 9.183358979887918 0 0 0
19 1 5.093880909513636 7.619603751074358 3.897743445082325 0 0 0
20 1 5.469881856316991 7.9206619147403785 8.886466368033172 0 0 0
21 1 9.203407754346307 5.176142445178042 3.841954618745069 0 0 0
22 1 9.24056863535297 5.421887913493122 9.342955834571201 0 0 0
23 1 8.170821239520636 7.478994347718781 3.5410649263940304 0 0 0
24 1 7.931915613733878 7.705845240038114 8.759484450033575 0 0 0
25 1 4.038102767047534 5.313074826778891 3.5523381961018328 0 0 0
26 1 4.243587269837892 5.506744320737879 8.452268726970452 0 0 0
27 1 2.547929126736152 8.103152421273956 3.458992974546681 0 0 0
28 1 2.6549558667191686 7.664761164574863 9.20888976114608 0 0 0
29 1 9.138072386403573 0.8044996751593326 3.6982268083198644 0 0 0
30 1 9.514602607390662 0.9472334177965079 8.708153949380456 0 0 0
31 1 7.8052284472552955 3.0695902861238835 3.9922982227019745 0 0 0
32 1 8.100003937559267 3.0228535190585237 9.329472132047655 0 0 0
33 1 5.3147692262618165 1.6159894596434647 1.4119032652592742 0 0 0
34 1 5.237115351879344 1.5338882646508214 6.6816344885169086 0 0 0
35 1 4.017613787431456 3.6035843298871395 1.593354505911363 0 0 0
36 1 4.080379956348794 3.7962409089413724 6.310243817575108 0 0 0
37 1 2.79568812389907 5.964488440176306 0.9876295350972238 0 0 0
38 1 2.764934296724505 6.197326638400464 6.041725873869841 0 0 0
39 1 1.3592668421988614 8.199119658312135 1.0603085467494406 0 0 0
40 1 1.298479695135258 8.310636505244313 6.16030993089219 0 0 0
41 1 0.05126455640119948 1.262422227317985 1.322241579163556 0 0 0
42 1 10.611301534130254 1.477958790469669 6.270497609637974 -1 0 0
43 1 2.6242547138083423 1.4305284795486626 1.4308126075585295 0 0 0
44 1 2.4815229795653657 1.6789250337451627 6.055870731675703 0 0 0
45 1 1.329863995326472 3.716409474983196 1.009050851500873 0 0 0
46 1 1.440354871010046 4.04544494558696 6.171875873747992 0 0 0
47 1 0.12876630698460476 6.1259249630849695 1.4300493567370052 0 0 0
48 1 10.574685982941004 6.07431334121769 6.435486787075298 -1 0 0
49 1 9.19329197877127 3.879714664378929 1.4867632077068385 0 0 0
50 1 9.207040938630938 3.7498318034743447 6.931765725552243 0 0 0
51 1 8.082006495565993 6.18730874849924 1.4541543383414302 0 0 0
52 1 8.043002088696287 6.295160318446451 6.583869516145143 0 0 0
53 1 6.5747039577908994 8.19514799631094 1.5666530051147758 0 0 0
54 1 6.716490615132218 8.506002978923432 6.2204219593809915 0 0 0
55 1 9.26818085513316 8.289291472118014 1.1283142669779218 0 0 0
56 1 9.245197118646894 8.462026204149755 6.306660314021454 0 0 0
57 1 8.011073860994486 1.4879142098895002 1.245172988979194 0 0 0
58 1 7.8409462806997245 1.5752525693146895 6.442346267969112 0 0 0
59 1 6.69631190389422 3.7666017830291634 1.6279587917081813 0 0 0
60 1 6.678243034710272 4.035764337988235 6.62535726225685 0 0 0
61 1 5.253446454514424 5.965670239215053 0.9788731816700171 0 0 0
62 1 5.559665607917591 6.369987227085121 6.2530476604848735 0 0 0
63 1 4.219727974478656 8.191170001864434 0.9653497543194511 0 0 0
64 1 3.7941942257485404 8.45706680457739 6.848273917334776 0 0 0

Velocities

1 -0.3214350569335599 -2.1143939960036904 2.414149941521451
2 -3.234446688404905 -1.3721775674658454 1.7231249562839828
3 3.4604813547592066 2.282499095538556 0.7125467692614622
4 -0.15381432851859253 -6.156272624174713 6.881482341766686
5 1.0255558652448813 2.989906014385448 -1.3443944613812435
6 1.2535189876387969 2.1720071263138383 -0.5069975595033601
7 2.350162003091375 0.5510949820470177 4.866460108137673
8 -6.372511738777374 -3.0129044170361423 0.5956271363055317
9 -5.611695575598753 -1.195516954763717 1.5474968409841492
10 1.9213481444350458 -0.19873454462781504 0.2216183015442386
11 -3.759125567976349 5.0382814546229815 -3.671145561897086
12 3.6711293236860447 0.21077991526052908 -2.0291473443737336
13 -3.244736057383924 2.7739048328785456 -4.828230683097203
14 3.663130482828166 -2.989313722784881 -5.367173095075163
15 -2.0323710374145043 1.2127789383380623 3.0185636374161025
16 -1.9654645554633337 -1.1997273405521622 -0.6135182184366115
17 -3.1935689608369238 -3.114920304270529 2.5905658873290944
18 -0.3479679397628378 -1.1716414109464481 2.853644325610226
19 -0.8870946901850982 -6.064423037831569 -1.6638740030608234
20 2.6755812957692413 -2.032503986505228 -3.418734476158737
21 -0.05415120489864944 -0.14510295449721755 -0.8400158661647786
22 -5.238626677997367 3.68973845210093 -3.1639734761935876
23 -2.4065766525472 3.985053881415791 1.6529839373924486
24 0.007580479285684005 4.037968319841381 -1.169648668355245
25 -0.6492786090731906 -2.5070208466752515 -1.072326403658052
26 2.9285737455618026 0.3182482691548224 1.2085086719715414
27 -1.2946065994251088 -1.8457354440011395 -1.863825183202049
28 6.456163777813131 -0.6365344255359626 -2.6781594585934667
29 0.22284719847661727 -1.2567455870712256 -5.516818955016913
30 -1.4674955646836474 0.5324710330604631 -1.2939054097255063
31 3.6070724010309285 -1.8256487502190244 -0.3730771057486357
32 0.062078427131496736 0.03775560023296789 -2.7962735539949204
33 -1.6003817093173147 1.0940764387305637 1.92227123819513
34 1.6713034836429401 -0.8507496663293826 2.178171553975028
35 2.5630779655861367 -0.13409500084277134 -3.452495021486456
36 8.466580481121886 2.2428639317485377 -3.2883051060788016
37 0.6878652149341541 3.50181464168942 0.6521513677241327
38 -1.0347197358318692 -2.492381713396384 -1.3511376895164247
39 0.9186088220680827 -1.2759311069759045 1.3418515459712599
40 3.6821096201203365 2.689103744213898 0.5941911696209241
41 4.129485051013042 2.016103649119321 -1.0378176569794835
42 0.1931989031314409 -3.1614870404942663 -4.833916776954119
43 -2.9899791846370767 -2.72297922821266 -1.6136583597390366
44 -0.8766444543827984 2.086392139726195 -2.954110232032622
45 -6.399840850248053 -4.495932899814001 0.949146610692537
46 -3.419687037386975 0.3156901994137339 5.543131692779924
47 -0.870144820432468 -1.9725000797618129 0.2535232451395737
48 -3.785876013980007 2.4665296003030153 1.6630721090704608
49 -0.3883466232029219 3.532012770009724 -0.9735590598097653
50 -1.7701040539486375 -0.18362454683231139 -0.4931794641096261
51 1.8314126066815393 -6.5266192326762615 -1.4176512016246348
52 0.36250255777666773 -1.910926779725066 4.040871336807305
53 -1.200921897081109 0.7391242640256213 -1.3035156729592354
54 4.733329964942343 3.1404176664065755 0.6558026480591357
55 4.858815160153601 4.281721660177877 2.479914867544957
56 -0.38958974928304974 3.435871656847387 7.286651067972429
57 -2.498905127043904 -0.04223180964328816 1.2626708723257356
58 -1.122942447459112 5.5608055771608536 -0.5816178156537408
59 -0.6561919721093712 1.5704926232891923 0.08119304826626468
60 2.197651309311316 -3.643606081362866 -0.3063006220495832
61 1.599657291997952 3.2723924155462103 0.01685140377092754
62 4.19071262961292 -4.315374255208995 4.134039845252672
63 -1.6023754319991743 0.16108054869546498 2.959194646394964
64 -2.5499159346214544 0.628775913943879 -0.4829689624572165
