ITEM: TIMESTEP
10000
ITEM: NUMBER OF ATOMS
64
ITEM: BOX BOUNDS xy xz yz pp pp pp
0.0000000000000000e+00 1.0640000000001363e+01 0.0000000000000000e+00
0.0000000000000000e+00 9.2145102962676049e+00 0.0000000000000000e+00
0.0000000000000000e+00 1.0220000000000001e+01 0.0000000000000000e+00
ITEM: ATOMS id type x y z
1 1 1.33599 5.71164 3.64233
2 1 1.06044 5.2918 8.78699
3 1 10.7174 7.98502 3.49763
4 1 -0.00136043 7.66668 8.69735
5 1 6.52941 0.775478 3.94788
6 1 6.80115 0.84957 9.26447
7 1 5.19973 2.84397 4.0797
8 1 5.14358 2.67708 9.15929
9 1 1.27865 0.990593 3.8904
10 1 1.48634 0.962424 8.82657
11 1 10.4994 3.30707 3.83248
12 1 0.109237 2.99018 9.1126
13 1 4.06926 0.828601 3.70132
14 1 4.02437 0.697986 9.21086
15 1 2.46503 3.20321 3.67428
16 1 2.83656 3.3242 8.63214
17 1 6.44191 5.28406 4.19207
18 1 6.83616 5.27261 9.18336
19 1 5.09388 7.6196 3.89774
20 1 5.46988 7.92066 8.88647
21 1 9.20341 5.17614 3.84195
22 1 9.24057 5.42189 9.34296
23 1 8.17082 7.47899 3.54106
24 1 7.93192 7.70585 8.75948
25 1 4.0381 5.31307 3.55234
26 1 4.24359 5.50674 8.45227
27 1 2.54793 8.10315 3.45899
28 1 2.65496 7.66476 9.20889
29 1 9.13807 0.8045 3.69823
30 1 9.5146 0.947233 8.70815
31 1 7.80523 3.06959 3.9923
32 1 8.1 3.02285 9.32947
33 1 5.31477 1.61599 1.4119
34 1 5.23712 1.53389 6.68163
35 1 4.01761 3.60358 1.59335
36 1 4.08038 3.79624 6.31024
37 1 2.79569 5.96449 0.98763
38 1 2.76493 6.19733 6.04173
39 1 1.35927 8.19912 1.06031
40 1 1.29848 8.31064 6.16031
41 1 10.6913 1.26242 1.32224
42 1 10.6113 1.47796 6.2705
43 1 2.62425 1.43053 1.43081
44 1 2.48152 1.67893 6.05587
45 1 1.32986 3.71641 1.00905
46 1 1.44035 4.04544 6.17188
47 1 0.128766 6.12592 1.43005
48 1 -0.065314 6.07431 6.43549
49 1 9.19329 3.87971 1.48676
50 1 9.20704 3.74983 6.93177
51 1 8.08201 6.18731 1.45415
52 1 8.043 6.29516 6.58387
53 1 6.5747 8.19515 1.56665
54 1 6.71649 8.506 6.22042
55 1 9.26818 8.28929 1.12831
56 1 9.2452 8.46203 6.30666
57 1 8.01107 1.48791 1.24517
58 1 7.84095 1.57525 6.44235
59 1 6.69631 3.7666 1.62796
60 1 6.67824 4.03576 6.62536
61 1 5.25345 5.96567 0.978873
62 1 5.55967 6.36999 6.25305
63 1 4.21973 8.19117 0.96535
64 1 3.79419 8.45707 6.84827
