LAMMPS data file via write_data, version 29 Sep 2021, timestep = 10000

64 atoms
1 atom types

0 10.640000000001363 xlo xhi
0 9.214510296267605 ylo yhi
0 10.3 zlo zhi
0 0 0 xy xz yz

Masses

1 65.38

Atoms # atomic

1 1 1.2975537128901036 5.337585776912567 4.097154512314375 0 0 0
2 1 1.2776138296604895 5.394833208080793 9.073438047459103 0 0 0
3 1 0.11773782669510617 7.7473194570175 4.220753811402364 0 0 0
4 1 10.463819725010087 7.554125618892618 8.805283019490565 -1 0 0
5 1 6.677316373944017 0.7958774318407593 3.9471612404236 0 0 0
6 1 6.640660830454997 0.7090064546892834 8.977181984918364 0 0 0
7 1 5.69648357677156 3.005375151716124 3.711310537511184 0 0 0
8 1 5.0403880337866855 3.1578599013656943 8.511269176645332 0 0 0
9 1 1.3356229127482484 0.741210994227232 3.582105515692378 0 0 0
10 1 1.3837435881823363 0.6077442500887646 8.67890770348771 0 0 0
11 1 10.589600338252366 3.238261395119257 3.7278914120791864 -1 0 0
12 1 10.508530851708246 3.0529836777242156 9.142573242589357 -1 0 0
13 1 3.8887445350106487 0.7393090542081527 4.017122275149345 0 0 0
14 1 4.015001081952507 0.6274059466772455 9.145146977490228 0 0 0
15 1 2.8818236620997477 2.8261967996300545 3.9520027081148896 0 0 0
16 1 2.46062313382133 2.9837233068194293 9.60700250299127 0 0 0
17 1 6.534116759291026 5.695820172367449 4.3360684004714 0 0 0
18 1 6.715664910112214 5.350672127404204 8.709655400799798 0 0 0
19 1 5.480989673054097 7.950345676719853 4.23045646263363 0 0 0
20 1 5.2648065712415795 7.568604267874158 9.06496121487352 0 0 0
21 1 9.339781991020734 5.649627893313252 3.743679518207296 0 0 0
22 1 9.157179351442927 5.349659524561047 9.086429178660472 0 0 0
23 1 8.006892118792626 7.615911976841479 4.021180092155345 0 0 0
24 1 7.814392600886769 7.832938298213113 9.16908130005965 0 0 0
25 1 4.011004671903902 5.158763527724188 3.4683918008644015 0 0 0
26 1 3.9390020795013134 5.103699091271907 9.385221185803063 0 0 0
27 1 2.6594049090090093 7.916906734497893 3.140321134709836 0 0 0
28 1 2.636136742358979 7.277825545919856 8.708072185136698 0 0 0
29 1 9.392555494308542 0.6040371224593235 3.9556608090259364 0 0 0
30 1 9.492681375123956 0.7155479878204276 8.852942533207823 0 0 0
31 1 8.097155253392524 3.062674307057929 3.9342279004141893 0 0 0
32 1 7.902035981101802 3.0081043418744993 8.967457713172754 0 0 0
33 1 5.171680871638995 1.6443798170600241 1.2112429137217622 0 0 0
34 1 5.3897426631036085 1.4191870268111708 6.275600313491319 0 0 0
35 1 3.997810221239926 3.8677848559486367 1.4361215923118096 0 0 0
36 1 3.907094499046326 3.8572533271372267 6.391472690887639 0 0 0
37 1 2.7574625643463424 6.026172343086366 1.4629182291386456 0 0 0
38 1 2.899209243978204 6.355418286631726 5.644065937967023 0 0 0
39 1 0.9356016636016085 8.238279545028277 0.9663871199562368 0 0 0
40 1 1.3295142659455366 8.6886747690629 6.245191720444897 0 0 0
41 1 10.48095826722806 1.3019422568420447 1.2791220382914426 -1 0 0
42 1 10.5576919113647 1.6843929918147549 6.413032583273803 -1 0 0
43 1 2.633165884705401 1.3201997245836001 1.5010747279771575 0 0 0
44 1 2.6983285396238093 1.6644638238430378 6.83360132121366 0 0 0
45 1 1.1599068979055216 3.9278816792883924 1.3217552677871578 0 0 0
46 1 1.4972016666694739 4.053140726967241 6.98349034388086 0 0 0
47 1 10.44359085533052 5.873505322273585 1.1041012813907376 -1 0 0
48 1 0.327576674633168 6.258913283024249 6.54817370667831 0 0 0
49 1 9.355221736215066 3.6254443628274906 1.279629744438214 0 0 0
50 1 9.528396455962728 4.0748840155072 6.686708555716351 0 0 0
51 1 8.040206086300888 6.095255252678892 1.3495588580461773 0 0 0
52 1 8.229737277659368 6.14920934258878 6.507764018880956 0 0 0
53 1 6.717537649645987 8.511701317547324 1.5197869735028904 0 0 0
54 1 6.735808909518102 8.33071702241447 6.246558151441335 0 0 0
55 1 9.219420738280466 8.347922350015349 1.3395234355639196 0 0 0
56 1 9.383483521164349 8.529984825197207 6.3924684466158 0 0 0
57 1 7.862189470362619 1.525746412483601 1.1956360623542837 0 0 0
58 1 7.8635401263753 1.8476724585691813 6.727791019286282 0 0 0
59 1 6.719674439687473 3.8790199293083183 1.1697443171490391 0 0 0
60 1 6.616897684996228 3.993588970269088 6.264614626651682 0 0 0
61 1 5.431218074336907 6.487779259113643 1.3457869705217713 0 0 0
62 1 5.001732959956436 6.109441310201318 6.558803961087317 0 0 0
63 1 3.9243181893716392 8.388892059593703 0.8986137472460336 0 0 0
64 1 4.225015494321583 8.405523791912815 6.529547825134816 0 0 0

Velocities

1 0.1770910498477049 -3.548568550451676 0.7988130454011754
2 0.850153729266689 3.667898300758757 2.7146133558311307
3 0.28449962902042536 2.069757655366167 2.9726182144836595
4 1.2065630864590902 -2.2570338641526924 1.3404572143300544
5 1.1574233138787957 -3.6313311360078586 4.003753474884719
6 -4.749061588819582 1.172262615678325 0.2711326314732907
7 -0.9925480426288777 3.675461457711285 1.3382507594884938
8 -5.142614163143818 -1.0286363151967826 -1.7675191867377655
9 -0.1306524137838271 1.027877704482666 -1.9784328426818463
10 2.5119799302810786 -2.5008309130612854 -2.0316489462205385
11 0.7237185379139457 -0.38569815902425036 -2.7294089400881663
12 1.5319763238150437 -8.576431935815855 8.21800336331404
13 -6.134793199635924 2.8608433042034647 -2.626076133407068
14 -1.0686774273018227 -4.895994490226706 -1.0464845910676577
15 -0.3522366506977824 -2.1439963232231576 -1.1059695265002072
16 -3.4450019492638755 1.5653005582150947 4.1803444921054504
17 2.372309746941262 -0.6460230301064485 2.366245435693052
18 3.4824039596469247 -0.05340075208289502 -1.7399080872332373
19 -1.2255512644039857 -0.8268366778414548 -1.6000280151019064
20 6.241534742251389 5.20942166447689 3.979290840316395
21 0.8549598662445067 5.320625387410562 -0.09068917655487277
22 3.350557954103616 0.06323763099374993 -6.4099025289939915
23 1.4132045774602535 -2.339294221781988 2.641366024155268
24 0.5684221575831137 -0.247669987547629 -0.7945524742801241
25 1.6843161300574196 3.866589530938859 4.077591483039308
26 -2.8933475112846225 -1.6955682162270487 -3.082353411469096
27 1.526916649485986 -5.607786412699662 0.5412202149334467
28 -5.148891596871471 2.9906169775534575 -5.599760889488038
29 -3.535831648649271 -0.2892051743257299 1.5942244611209626
30 -1.172815982987961 3.875171020107035 0.9186228016290856
31 -2.655127102885609 2.0218206837756783 -4.639323071922145
32 -0.4131103849961293 -4.3526342676343015 -1.3418165988249837
33 1.6631442788916675 -1.458668292132803 5.0101789623658455
34 -0.23741750926323973 -3.2161514683943553 1.8986820503932569
35 -0.951746426268076 -2.049072720329996 1.7987998086430645
36 -0.13981241988788695 2.009890489242432 -2.6645622160266833
37 -0.8527300084638844 6.383368703762001 0.048503563360336954
38 -0.5728372062987603 -1.963212981872223 -3.013583152129092
39 -1.232292773111679 -2.7779647506640828 1.8380734123311344
40 -1.8938732786717623 4.503484144209999 -2.5958696896662437
41 -0.9382580857306219 1.5337001130889982 0.5153760429127755
42 -1.5808170218445516 -3.6678152306964806 -7.156272754536789
43 5.435569999469044 -1.4916539713395787 0.8279884910360571
44 0.28009255015487605 6.669470960385463 -0.41910989457247677
45 -3.7600414035901037 3.895881461089815 -0.41738572710016086
46 4.44854503761543 0.9014877552919377 -2.407647255206518
47 1.010975017082306 2.150781397651888 1.5295433249347556
48 -3.1562925791731606 -0.39746213207243003 1.741944167901038
49 -0.28887066116679483 -0.25659300795526135 -0.62585042708504
50 3.3454020900956913 1.8260526544235633 0.9720142695786956
51 -2.2870892114797994 0.6157281012071802 -8.067960261564233
52 6.497194049808734 -1.8618155385111441 -2.958369060693575
53 4.419823255422812 3.499324998822113 1.1205270573081019
54 2.437978660415958 1.8726032082260635 0.6482596184028585
55 1.3519665908579452 -4.592648837132501 4.851853043448798
56 -5.2666823363793815 2.91388796393672 1.753157801666361
57 -0.3027725870777967 -2.5217363163826603 3.2778062764258484
58 3.003339640508267 -4.926279204058146 0.6358613685279225
59 3.8014997445304775 -2.8417512281917885 -0.3216505053172
60 3.0816402153579947 -2.9369685938637384 2.4117092211532545
61 -3.568577448496323 3.291820050636529 -1.4478737188907553
62 0.4229247162329729 -2.824987293973885 0.08821360645458276
63 -3.4268259941470682 -0.251141263326422 0.5734154621123777
64 -1.620929352296176 3.6084967646575787 -2.818446277796001
