ITEM: TIMESTEP
10000
ITEM: NUMBER OF ATOMS
64
ITEM: BOX BOUNDS xy xz yz pp pp pp
0.0000000000000000e+00 1.0640000000001363e+01 0.0000000000000000e+00
0.0000000000000000e+00 9.2145102962676049e+00 0.0000000000000000e+00
0.0000000000000000e+00 1.0300000000000001e+01 0.0000000000000000e+00
ITEM: ATOMS id type x y z
1 1 1.29755 5.33759 4.09715
2 1 1.27761 5.39483 9.07344
3 1 0.117738 7.74732 4.22075
4 1 10.4638 7.55413 8.80528
5 1 6.67732 0.795877 3.94716
6 1 6.64066 0.709006 8.97718
7 1 5.69648 3.00538 3.71131
8 1 5.04039 3.15786 8.51127
9 1 1.33562 0.741211 3.58211
10 1 1.38374 0.607744 8.67891
11 1 10.5896 3.23826 3.72789
12 1 10.5085 3.05298 9.14257
13 1 3.88874 0.739309 4.01712
14 1 4.015 0.627406 9.14515
15 1 2.88182 2.8262 3.952
16 1 2.46062 2.98372 9.607
17 1 6.53412 5.69582 4.33607
18 1 6.71566 5.35067 8.70966
19 1 5.48099 7.95035 4.23046
20 1 5.26481 7.5686 9.06496
21 1 9.33978 5.64963 3.74368
22 1 9.15718 5.34966 9.08643
23 1 8.00689 7.61591 4.02118
24 1 7.81439 7.83294 9.16908
25 1 4.011 5.15876 3.46839
26 1 3.939 5.1037 9.38522
27 1 2.6594 7.91691 3.14032
28 1 2.63614 7.27783 8.70807
29 1 9.39256 0.604037 3.95566
30 1 9.49268 0.715548 8.85294
31 1 8.09716 3.06267 3.93423
32 1 7.90204 3.0081 8.96746
33 1 5.17168 1.64438 1.21124
34 1 5.38974 1.41919 6.2756
35 1 3.99781 3.86778 1.43612
36 1 3.90709 3.85725 6.39147
37 1 2.75746 6.02617 1.46292
38 1 2.89921 6.35542 5.64407
39 1 0.935602 8.23828 0.966387
40 1 1.32951 8.68867 6.24519
41 1 10.481 1.30194 1.27912
42 1 10.5577 1.68439 6.41303
43 1 2.63317 1.3202 1.50107
44 1 2.69833 1.66446 6.8336
45 1 1.15991 3.92788 1.32176
46 1 1.4972 4.05314 6.98349
47 1 10.4436 5.87351 1.1041
48 1 0.327577 6.25891 6.54817
49 1 9.35522 3.62544 1.27963
50 1 9.5284 4.07488 6.68671
51 1 8.04021 6.09526 1.34956
52 1 8.22974 6.14921 6.50776
53 1 6.71754 8.5117 1.51979
54 1 6.73581 8.33072 6.24656
55 1 9.21942 8.34792 1.33952
56 1 9.38348 8.52998 6.39247
57 1 7.86219 1.52575 1.19564
58 1 7.86354 1.84767 6.72779
59 1 6.71967 3.87902 1.16974
60 1 6.6169 3.99359 6.26461
61 1 5.43122 6.48778 1.34579
62 1 5.00173 6.10944 6.5588
63 1 3.92432 8.38889 0.898614
64 1 4.22502 8.40552 6.52955
