LAMMPS (29 Sep 2021 - Update 1)
Reading data file ...
  triclinic box = (0.0000000 0.0000000 0.0000000) to (10.480000 9.0759462 10.060000) with tilt (0.0000000 0.0000000 0.0000000)
  1 by 1 by 1 MPI processor grid
  reading atoms ...
  64 atoms
  read_data CPU = 0.001 seconds
Neighbor list info ...
  update every 1 steps, delay 0 steps, check yes
  max neighbors/atom: 2000, page size: 100000
  master list distance cutoff = 7
  ghost atom cutoff = 7
  binsize = 3.5, bins = 3 3 3
  1 neighbor lists, perpetual/occasional/extra = 1 0 0
  (1) pair mlip, perpetual
      attributes: full, newton on
      pair build: full/bin/atomonly
      stencil: full/bin/3d
      bin: standard
Setting up Verlet run ...
  Unit style    : metal
  Current step  : 0
  Time step     : 0.001
Per MPI rank memory allocation (min/avg/max) = 3.089 | 3.089 | 3.089 Mbytes
Step Time Temp Volume Press 
       0            0         1380    956.86612    23265.039 
       1        0.001    1378.8402    956.86612    23297.908 
       2        0.002    1375.3609    956.86612     23388.52 
       3        0.003    1369.5652    956.86612    23550.593 
       4        0.004    1361.4637    956.86612    23787.648 
       5        0.005    1351.0774    956.86612    24099.677 
       6        0.006    1338.4377    956.86612    24486.117 
       7        0.007    1323.5869    956.86612    24945.828 
       8        0.008    1306.5786    956.86612    25477.039 
       9        0.009    1287.4778    956.86612    26077.798 
      10         0.01    1266.3614    956.86612    26745.765 
Loop time of 0.212934 on 1 procs for 10 steps with 64 atoms

Performance: 4.058 ns/day, 5.915 hours/ns, 46.963 timesteps/s
99.6% CPU use with 1 MPI tasks x no OpenMP threads

MPI task timing breakdown:
Section |  min time  |  avg time  |  max time  |%varavg| %total
---------------------------------------------------------------
Pair    | 0.21283    | 0.21283    | 0.21283    |   0.0 | 99.95
Neigh   | 0          | 0          | 0          |   0.0 |  0.00
Comm    | 3.155e-05  | 3.155e-05  | 3.155e-05  |   0.0 |  0.01
Output  | 3.6562e-05 | 3.6562e-05 | 3.6562e-05 |   0.0 |  0.02
Modify  | 2.127e-05  | 2.127e-05  | 2.127e-05  |   0.0 |  0.01
Other   |            | 1.089e-05  |            |       |  0.01

Nlocal:        64.0000 ave          64 max          64 min
Histogram: 1 0 0 0 0 0 0 0 0 0
Nghost:        886.000 ave         886 max         886 min
Histogram: 1 0 0 0 0 0 0 0 0 0
Neighs:         0.00000 ave           0 max           0 min
Histogram: 1 0 0 0 0 0 0 0 0 0
FullNghs:      6272.00 ave        6272 max        6272 min
Histogram: 1 0 0 0 0 0 0 0 0 0

Total # of neighbors = 6272
Ave neighs/atom = 98.000000
Neighbor list builds = 0
Dangerous builds = 0
Setting up Verlet run ...
  Unit style    : metal
  Current step  : 10
  Time step     : 0.001
Per MPI rank memory allocation (min/avg/max) = 3.089 | 3.089 | 3.089 Mbytes
Step Time Temp Volume Press 
      10         0.01    1266.3614    956.86612    26745.765 
      11        0.011    1243.3181    956.86612    27478.067 
      12        0.012    1218.4485    956.86612    28271.485 
      13        0.013    1191.8654    956.86612    29122.392 
      14        0.014    1163.6937    956.86612    30026.757 
      15        0.015      1134.07    956.86612    30980.193 
      16        0.016    1103.1423    956.86612     31977.98 
      17        0.017    1071.0696    956.86612    33015.037 
      18        0.018    1038.0211    956.86612    34086.048 
      19        0.019    1004.1754    956.86612    35185.368 
      20         0.02    969.71945    956.86612    36307.106 
      21        0.021    934.84711    956.86612    37444.832 
      22        0.022    899.75775    956.86612    38592.595 
      23        0.023     864.6546    956.86612    39744.034 
      24        0.024    829.74279    956.86612     40892.68 
      25        0.025    795.22741    956.86612    42031.957 
      26        0.026    761.31137    956.86612    43155.736 
      27        0.027    728.19336    956.86612     44258.29 
      28        0.028     696.0657    956.86612    45334.189 
      29        0.029    665.11199    956.86612    46377.785 
      30         0.03    635.50475    956.86612    47383.191 
      31        0.031    607.40301    956.86612    48343.884 
      32        0.032    580.95066    956.86612    49256.133 
      33        0.033    556.27494    956.86612    50116.472 
      34        0.034    533.48494    956.86612    50922.306 
      35        0.035    512.66999    956.86612    51669.668 
      36        0.036    493.89878    956.86612    52356.824 
      37        0.037    477.21913    956.86612    52982.845 
      38        0.038    462.65746    956.86612    53546.486 
      39        0.039    450.21871    956.86612    54046.394 
      40         0.04    439.88669    956.86612    54482.378 
      41        0.041    431.62489    956.86612    54854.755 
      42        0.042    425.37756    956.86612    55164.595 
      43        0.043    421.07091    956.86612    55412.544 
      44        0.044    418.61465    956.86612    55600.684 
      45        0.045    417.90361    956.86612    55730.148 
      46        0.046    418.82015    956.86612    55804.948 
      47        0.047    421.23638    956.86612    55829.202 
      48        0.048    425.01605    956.86612    55805.469 
      49        0.049    430.01656    956.86612    55737.559 
      50         0.05    436.09119    956.86612    55629.594 
      51        0.051    443.09116    956.86612     55485.42 
      52        0.052    450.86738    956.86612    55308.882 
      53        0.053    459.27237    956.86612    55105.479 
      54        0.054    468.16201    956.86612    54880.077 
      55        0.055    477.39682    956.86612    54635.577 
      56        0.056    486.84311    956.86612     54376.35 
      57        0.057    496.37423    956.86612     54106.86 
      58        0.058    505.87143    956.86612    53831.262 
      59        0.059     515.2247    956.86612    53554.179 
      60         0.06    524.33311    956.86612    53278.553 
      61        0.061    533.10508    956.86612    53007.473 
      62        0.062    541.45879    956.86612    52744.943 
      63        0.063     549.3223    956.86612    52493.663 
      64        0.064    556.63321    956.86612    52256.157 
      65        0.065    563.33863    956.86612    52033.392 
      66        0.066    569.39521    956.86612    51827.032 
      67        0.067    574.76876    956.86612    51640.139 
      68        0.068    579.43378    956.86612    51473.926 
      69        0.069    583.37292    956.86612    51329.732 
      70         0.07     586.5767    956.86612    51207.803 
      71        0.071    589.04335    956.86612     51108.76 
      72        0.072    590.77825    956.86612    51033.217 
      73        0.073    591.79349    956.86612     50980.31 
      74        0.074    592.10753    956.86612    50949.928 
      75        0.075    591.74462    956.86612     50941.76 
      76        0.076     590.7344    956.86612    50954.756 
      77        0.077    589.11152    956.86612    50988.107 
      78        0.078    586.91502    956.86612     51037.94 
      79        0.079    584.18804    956.86612    51104.756 
      80         0.08    580.97768    956.86612    51188.601 
      81        0.081    577.33463    956.86612    51287.269 
      82        0.082    573.31273    956.86612    51398.866 
      83        0.083    568.96859    956.86612    51521.961 
      84        0.084    564.36109    956.86612    51655.437 
      85        0.085    559.55102    956.86612    51795.516 
      86        0.086    554.60049    956.86612    51941.725 
      87        0.087    549.57235    956.86612    52090.992 
      88        0.088    544.52979    956.86612    52241.122 
      89        0.089    539.53581    956.86612    52390.226 
      90         0.09    534.65273    956.86612    52536.214 
      91        0.091    529.94162    956.86612    52678.367 
      92        0.092    525.46171    956.86612    52814.382 
      93        0.093    521.26976    956.86612    52942.282 
      94        0.094    517.41943    956.86612    53060.866 
      95        0.095    513.96064    956.86612    53168.556 
      96        0.096    510.93902    956.86612    53263.795 
      97        0.097    508.39523    956.86612    53344.736 
      98        0.098    506.36449    956.86612    53411.012 
      99        0.099    504.87617    956.86612     53461.82 
     100          0.1    503.95334    956.86612    53495.866 
Loop time of 1.9169 on 1 procs for 90 steps with 64 atoms

Performance: 4.057 ns/day, 5.916 hours/ns, 46.951 timesteps/s
100.0% CPU use with 1 MPI tasks x no OpenMP threads

MPI task timing breakdown:
Section |  min time  |  avg time  |  max time  |%varavg| %total
---------------------------------------------------------------
Pair    | 1.9158     | 1.9158     | 1.9158     |   0.0 | 99.95
Neigh   | 0.00022374 | 0.00022374 | 0.00022374 |   0.0 |  0.01
Comm    | 0.00028408 | 0.00028408 | 0.00028408 |   0.0 |  0.01
Output  | 0.00031759 | 0.00031759 | 0.00031759 |   0.0 |  0.02
Modify  | 0.00015559 | 0.00015559 | 0.00015559 |   0.0 |  0.01
Other   |            | 7.14e-05   |            |       |  0.00

Nlocal:        64.0000 ave          64 max          64 min
Histogram: 1 0 0 0 0 0 0 0 0 0
Nghost:        886.000 ave         886 max         886 min
Histogram: 1 0 0 0 0 0 0 0 0 0
Neighs:         0.00000 ave           0 max           0 min
Histogram: 1 0 0 0 0 0 0 0 0 0
FullNghs:      6204.00 ave        6204 max        6204 min
Histogram: 1 0 0 0 0 0 0 0 0 0

Total # of neighbors = 6204
Ave neighs/atom = 96.937500
Neighbor list builds = 1
Dangerous builds = 0
Setting up Verlet run ...
  Unit style    : metal
  Current step  : 100
  Time step     : 0.001
Per MPI rank memory allocation (min/avg/max) = 3.089 | 3.089 | 3.089 Mbytes
Step Time Temp Volume Press 
     100          0.1    503.95334    956.86612    53495.866 
     110         0.11    526.16901    956.86612    52850.135 
     120         0.12     587.0189    956.86612    50813.287 
     130         0.13    651.98658    956.86612    48389.814 
     140         0.14    707.24582    956.86612    46280.853 
     150         0.15    747.37582    956.86612    44799.787 
     160         0.16    760.74609    956.86612    44379.222 
     170         0.17    744.16478    956.86612    45063.101 
     180         0.18    710.74607    956.86612    46376.017 
     190         0.19    680.10914    956.86612    47698.879 
     200          0.2    665.89905    956.86612     48606.73 
     210         0.21    667.50259    956.86612    48917.988 
     220         0.22    674.68483    956.86612    48853.651 
     230         0.23    681.29702    956.86612    48756.095 
     240         0.24    687.71948    956.86612    48707.783 
     250         0.25    692.85707    956.86612     48809.71 
     260         0.26    692.14432    956.86612    49170.627 
     270         0.27    682.84317    956.86612    49709.467 
     280         0.28    666.70561    956.86612    50360.112 
     290         0.29    649.59096    956.86612    50885.901 
     300          0.3    642.30033    956.86612    51045.949 
     310         0.31    656.01442    956.86612    50610.248 
     320         0.32    689.27039    956.86612     49736.05 
     330         0.33    723.65204    956.86612    48850.032 
     340         0.34    737.11944    956.86612    48559.927 
     350         0.35    722.12972    956.86612    49258.336 
     360         0.36    688.14609    956.86612    50702.835 
     370         0.37    643.72275    956.86612    52568.841 
     380         0.38    594.56511    956.86612    54444.628 
     390         0.39    567.73755    956.86612    55424.102 
     400          0.4    599.74893    956.86612    54628.873 
     410         0.41    678.86484    956.86612    52521.674 
     420         0.42    746.09184    956.86612    50815.703 
     430         0.43    768.89437    956.86612     50543.11 
     440         0.44    762.87819    956.86612    51331.383 
     450         0.45    754.91414    956.86612    52346.825 
     460         0.46    756.32896    956.86612    53109.888 
     470         0.47    767.39871    956.86612    53562.919 
     480         0.48    785.53398    956.86612    53934.586 
     490         0.49    804.05026    956.86612    54457.606 
     500          0.5    818.43322    956.86612    55144.169 
     510         0.51    835.01202    956.86612    55813.981 
     520         0.52     862.3181    956.86612    56406.814 
     530         0.53    891.56221    956.86612     57098.45 
     540         0.54     900.7999    956.86612    58270.975 
     550         0.55    884.27212    956.86612    59995.528 
     560         0.56    856.90005    956.86612    61872.183 
     570         0.57    829.35446    956.86612    63470.261 
     580         0.58    808.48862    956.86612    64440.111 
     590         0.59    803.98303    956.86612    64624.776 
     600          0.6    807.09471    956.86612    64188.241 
     610         0.61    806.80817    956.86612    63594.111 
     620         0.62    802.03713    956.86612     63130.09 
     630         0.63     794.9554    956.86612    62736.089 
     640         0.64    796.27405    956.86612    62057.502 
     650         0.65    810.24776    956.86612    60894.136 
     660         0.66    821.01684    956.86612    59357.989 
     670         0.67    825.82207    956.86612    57530.672 
     680         0.68    839.18739    956.86612    55223.903 
     690         0.69    856.12975    956.86612    52787.546 
     700          0.7    854.62067    956.86612    51162.618 
     710         0.71    818.85059    956.86612    51119.989 
     720         0.72    748.18939    956.86612    52745.742 
     730         0.73    660.79895    956.86612    55201.407 
     740         0.74    593.47778    956.86612    57188.855 
     750         0.75    580.94293    956.86612    57479.009 
     760         0.76    621.76443    956.86612    55968.927 
     770         0.77    679.08687    956.86612    53731.779 
     780         0.78    719.18257    956.86612    51834.144 
     790         0.79    734.03289    956.86612    50813.244 
     800          0.8    733.19417    956.86612    50481.001 
     810         0.81    732.58199    956.86612    50290.269 
     820         0.82    742.25726    956.86612    49777.217 
     830         0.83     757.1201    956.86612    48933.474 
     840         0.84    766.88919    956.86612    48207.006 
     850         0.85    766.62127    956.86612    47766.768 
     860         0.86    755.19737    956.86612     47680.02 
     870         0.87    732.78348    956.86612    47928.945 
     880         0.88    703.79779    956.86612    48340.117 
     890         0.89    677.35069    956.86612    48635.203 
     900          0.9    659.05061    956.86612    48530.875 
     910         0.91    650.40889    956.86612     47950.44 
     920         0.92    662.99335    956.86612    46731.385 
     930         0.93    700.13866    956.86612    45069.725 
     940         0.94    728.61452    956.86612    43910.545 
     950         0.95    718.57577    956.86612    44001.843 
     960         0.96    680.83351    956.86612    44975.915 
     970         0.97    645.90328    956.86612    45886.168 
     980         0.98    626.06082    956.86612    46320.543 
     990         0.99    611.72469    956.86612    46563.131 
    1000            1    593.19852    956.86612    46914.863 
Loop time of 18.9852 on 1 procs for 900 steps with 64 atoms

Performance: 4.096 ns/day, 5.860 hours/ns, 47.405 timesteps/s
100.0% CPU use with 1 MPI tasks x no OpenMP threads

MPI task timing breakdown:
Section |  min time  |  avg time  |  max time  |%varavg| %total
---------------------------------------------------------------
Pair    | 18.976     | 18.976     | 18.976     |   0.0 | 99.95
Neigh   | 0.0036654  | 0.0036654  | 0.0036654  |   0.0 |  0.02
Comm    | 0.0029407  | 0.0029407  | 0.0029407  |   0.0 |  0.02
Output  | 0.0004009  | 0.0004009  | 0.0004009  |   0.0 |  0.00
Modify  | 0.0015416  | 0.0015416  | 0.0015416  |   0.0 |  0.01
Other   |            | 0.0006789  |            |       |  0.00

Nlocal:        64.0000 ave          64 max          64 min
Histogram: 1 0 0 0 0 0 0 0 0 0
Nghost:        877.000 ave         877 max         877 min
Histogram: 1 0 0 0 0 0 0 0 0 0
Neighs:         0.00000 ave           0 max           0 min
Histogram: 1 0 0 0 0 0 0 0 0 0
FullNghs:      6256.00 ave        6256 max        6256 min
Histogram: 1 0 0 0 0 0 0 0 0 0

Total # of neighbors = 6256
Ave neighs/atom = 97.750000
Neighbor list builds = 16
Dangerous builds = 0
Setting up Verlet run ...
  Unit style    : metal
  Current step  : 1000
  Time step     : 0.001
Per MPI rank memory allocation (min/avg/max) = 3.089 | 3.089 | 3.089 Mbytes
Step Time Temp Volume Press 
    1000            1    593.19852    956.86612    46914.863 
    1100          1.1    583.53674    956.86612    48381.365 
    1200          1.2    748.03359    956.86612    49177.772 
    1300          1.3    695.58574    956.86612    52939.361 
    1400          1.4    807.59488    956.86612    48932.174 
    1500          1.5    652.74537    956.86612    48990.317 
    1600          1.6    563.29633    956.86612    48016.862 
    1700          1.7    738.79032    956.86612    45076.379 
    1800          1.8    610.58762    956.86612    54073.128 
    1900          1.9    788.88073    956.86612    51756.175 
    2000            2    706.60282    956.86612    56151.885 
    2100          2.1    707.85531    956.86612    53674.418 
    2200          2.2    653.48714    956.86612    48740.399 
    2300          2.3    708.07226    956.86612    44957.427 
    2400          2.4    627.25444    956.86612    48144.435 
    2500          2.5    839.26081    956.86612    47624.039 
    2600          2.6    825.07216    956.86612    51881.852 
    2700          2.7    747.59995    956.86612    52542.691 
    2800          2.8    614.08872    956.86612     51058.88 
    2900          2.9    615.84574    956.86612    46960.474 
    3000            3    706.16171    956.86612    47146.281 
    3100          3.1    747.16917    956.86612    47012.062 
    3200          3.2    696.12108    956.86612    51263.244 
    3300          3.3    588.63817    956.86612    55110.487 
    3400          3.4    706.91063    956.86612    50131.232 
    3500          3.5     640.9165    956.86612    47136.394 
    3600          3.6    607.21045    956.86612    48951.824 
    3700          3.7    684.28795    956.86612    52484.751 
    3800          3.8     761.6831    956.86612    50699.085 
    3900          3.9    562.25527    956.86612    53093.233 
    4000            4    667.84761    956.86612    49151.554 
    4100          4.1    680.30819    956.86612    47722.089 
    4200          4.2    582.35757    956.86612    52193.255 
    4300          4.3     726.4113    956.86612    47937.564 
    4400          4.4    658.23204    956.86612    52284.012 
    4500          4.5    690.67828    956.86612    49891.878 
    4600          4.6    612.81185    956.86612    46265.401 
    4700          4.7    629.68494    956.86612    43611.489 
    4800          4.8    669.34286    956.86612    46981.132 
    4900          4.9    718.59366    956.86612    49632.768 
    5000            5    562.40566    956.86612    55768.273 
    5100          5.1     704.9692    956.86612    51487.091 
    5200          5.2    674.70247    956.86612    48434.559 
    5300          5.3    664.07858    956.86612    45713.289 
    5400          5.4    751.21471    956.86612    46932.353 
    5500          5.5    762.03504    956.86612    52262.777 
    5600          5.6    737.09543    956.86612    50168.273 
    5700          5.7    747.43166    956.86612     46825.82 
    5800          5.8     541.8679    956.86612    45868.162 
    5900          5.9    531.16629    956.86612    47156.982 
    6000            6    680.08745    956.86612    46057.585 
    6100          6.1    626.26509    956.86612    48881.529 
    6200          6.2    669.43474    956.86612    52420.823 
    6300          6.3    716.69931    956.86612    54257.412 
    6400          6.4    798.87336    956.86612    48867.069 
    6500          6.5    626.88985    956.86612    53010.025 
    6600          6.6    683.35856    956.86612     50399.15 
    6700          6.7    685.14783    956.86612    46388.079 
    6800          6.8    567.85948    956.86612    48069.203 
    6900          6.9    699.88383    956.86612    49727.932 
    7000            7    766.63708    956.86612     54882.99 
    7100          7.1    708.12021    956.86612    51959.048 
    7200          7.2    647.70919    956.86612    51334.214 
    7300          7.3    584.16849    956.86612    52589.943 
    7400          7.4    683.17328    956.86612    52703.842 
    7500          7.5    662.96121    956.86612    54721.354 
    7600          7.6    729.57813    956.86612    51678.385 
    7700          7.7    616.73062    956.86612    50462.553 
    7800          7.8    604.62635    956.86612     47154.87 
    7900          7.9    628.06087    956.86612     50717.39 
    8000            8    725.36267    956.86612    55625.426 
    8100          8.1    719.36206    956.86612    54343.994 
    8200          8.2    738.22615    956.86612    47982.007 
    8300          8.3    680.86817    956.86612    45631.628 
    8400          8.4    657.28621    956.86612    44899.315 
    8500          8.5    696.59338    956.86612    49097.038 
    8600          8.6    715.19921    956.86612    50683.667 
    8700          8.7    623.25339    956.86612    52718.968 
    8800          8.8    670.43455    956.86612    47312.168 
    8900          8.9    685.50471    956.86612    42865.263 
    9000            9    654.61897    956.86612    46281.963 
    9100          9.1    818.57795    956.86612    50161.933 
    9200          9.2    668.74028    956.86612    58044.177 
    9300          9.3    903.53058    956.86612    48416.586 
    9400          9.4     672.2272    956.86612    50075.627 
    9500          9.5    770.00527    956.86612    44492.412 
    9600          9.6    705.55573    956.86612    46281.101 
    9700          9.7    551.99707    956.86612    53981.756 
    9800          9.8    735.71345    956.86612    55235.478 
    9900          9.9    813.57129    956.86612    54157.858 
   10000           10    771.82258    956.86612    50098.365 
Loop time of 199.558 on 1 procs for 9000 steps with 64 atoms

Performance: 3.897 ns/day, 6.159 hours/ns, 45.100 timesteps/s
100.0% CPU use with 1 MPI tasks x no OpenMP threads

MPI task timing breakdown:
Section |  min time  |  avg time  |  max time  |%varavg| %total
---------------------------------------------------------------
Pair    | 199.47     | 199.47     | 199.47     |   0.0 | 99.95
Neigh   | 0.038113   | 0.038113   | 0.038113   |   0.0 |  0.02
Comm    | 0.031686   | 0.031686   | 0.031686   |   0.0 |  0.02
Output  | 0.00053598 | 0.00053598 | 0.00053598 |   0.0 |  0.00
Modify  | 0.015687   | 0.015687   | 0.015687   |   0.0 |  0.01
Other   |            | 0.006824   |            |       |  0.00

Nlocal:        64.0000 ave          64 max          64 min
Histogram: 1 0 0 0 0 0 0 0 0 0
Nghost:        886.000 ave         886 max         886 min
Histogram: 1 0 0 0 0 0 0 0 0 0
Neighs:         0.00000 ave           0 max           0 min
Histogram: 1 0 0 0 0 0 0 0 0 0
FullNghs:      6246.00 ave        6246 max        6246 min
Histogram: 1 0 0 0 0 0 0 0 0 0

Total # of neighbors = 6246
Ave neighs/atom = 97.593750
Neighbor list builds = 160
Dangerous builds = 0
System init for write_data ...
Total wall time: 0:03:40
