ITEM: TIMESTEP
10000
ITEM: NUMBER OF ATOMS
64
ITEM: BOX BOUNDS xy xz yz pp pp pp
0.0000000000000000e+00 1.0479999999999203e+01 0.0000000000000000e+00
0.0000000000000000e+00 9.0759462316602288e+00 0.0000000000000000e+00
0.0000000000000000e+00 1.0060000000000000e+01 0.0000000000000000e+00
ITEM: ATOMS id type x y z
1 1 1.31937 5.37907 3.58144
2 1 1.42872 5.20853 8.95031
3 1 10.466 7.57174 3.79952
4 1 0.153868 7.51279 8.79742
5 1 6.67282 0.851072 3.58937
6 1 6.39602 0.781844 8.33026
7 1 4.99224 2.94732 3.71585
8 1 5.41897 3.07084 8.59973
9 1 1.31124 0.811239 3.71761
10 1 1.53391 0.72027 8.99215
11 1 10.4226 2.88825 3.438
12 1 10.4678 3.2119 8.92875
13 1 3.90465 0.787281 3.88265
14 1 4.05057 0.748409 8.97814
15 1 2.50782 3.0051 4.20514
16 1 2.83713 2.92111 9.03474
17 1 6.67852 5.3008 3.825
18 1 6.62853 5.36616 8.59426
19 1 4.81673 7.62915 3.3442
20 1 5.32024 7.36492 8.67281
21 1 9.03911 5.35997 3.40374
22 1 9.17286 5.53955 8.89234
23 1 7.80677 7.63291 3.89538
24 1 7.70882 7.83446 8.6022
25 1 3.97824 5.27136 3.6591
26 1 4.09164 5.14774 9.02202
27 1 2.59022 7.3263 4.39136
28 1 2.65648 7.27994 8.87296
29 1 9.07519 0.517033 3.78006
30 1 9.04306 0.799037 9.02264
31 1 7.93822 3.03525 3.84536
32 1 8.00059 2.88298 8.52503
33 1 5.10959 1.60932 1.20111
34 1 5.37533 1.504 6.11946
35 1 3.85003 3.74227 1.6297
36 1 3.98061 3.76744 6.63456
37 1 2.61733 5.90531 1.15802
38 1 2.64012 5.98076 6.5989
39 1 1.21712 8.36328 1.24906
40 1 1.33144 8.42084 6.57147
41 1 10.4742 1.67241 0.944953
42 1 0.136239 1.59711 6.66314
43 1 2.59393 1.52639 1.36109
44 1 2.73103 1.5644 6.53753
45 1 1.17371 3.87158 1.36619
46 1 1.27259 3.80745 6.4786
47 1 10.3506 6.18535 1.08561
48 1 0.292297 5.98247 5.7332
49 1 8.98877 3.79222 1.32112
50 1 9.50276 3.77452 5.97648
51 1 7.72858 6.15793 1.16648
52 1 8.04759 6.02067 6.38301
53 1 6.47259 8.1909 1.47805
54 1 6.64936 7.94237 5.99052
55 1 8.99797 8.34211 1.00611
56 1 9.4213 7.95121 6.47471
57 1 7.59199 1.5757 0.841786
58 1 8.12095 1.45242 6.42601
59 1 6.44471 3.8945 1.26542
60 1 6.52479 3.96236 6.23615
61 1 5.17693 6.09021 1.12081
62 1 4.9521 6.22582 6.10818
63 1 3.8755 8.31161 1.16736
64 1 3.76899 8.54102 6.73564
