LAMMPS (29 Sep 2021 - Update 1)
Reading data file ...
  triclinic box = (0.0000000 0.0000000 0.0000000) to (10.480000 9.0759462 10.100000) with tilt (0.0000000 0.0000000 0.0000000)
  1 by 1 by 1 MPI processor grid
  reading atoms ...
  64 atoms
  read_data CPU = 0.001 seconds
Neighbor list info ...
  update every 1 steps, delay 0 steps, check yes
  max neighbors/atom: 2000, page size: 100000
  master list distance cutoff = 7
  ghost atom cutoff = 7
  binsize = 3.5, bins = 3 3 3
  1 neighbor lists, perpetual/occasional/extra = 1 0 0
  (1) pair mlip, perpetual
      attributes: full, newton on
      pair build: full/bin/atomonly
      stencil: full/bin/3d
      bin: standard
Setting up Verlet run ...
  Unit style    : metal
  Current step  : 0
  Time step     : 0.001
Per MPI rank memory allocation (min/avg/max) = 3.089 | 3.089 | 3.089 Mbytes
Step Time Temp Volume Press 
       0            0         1380    960.67076    20919.079 
       1        0.001    1378.8762    960.67076     20955.79 
       2        0.002    1375.5162    960.67076    21050.292 
       3        0.003    1369.9454    960.67076    21206.867 
       4        0.004    1362.1955    960.67076    21433.342 
       5        0.005    1352.3056    960.67076     21731.38 
       6        0.006    1340.3231    960.67076     22100.13 
       7        0.007    1326.3036    960.67076    22538.148 
       8        0.008     1310.311    960.67076    23044.024 
       9        0.009    1292.4171    960.67076    23615.587 
      10         0.01    1272.7018    960.67076    24250.377 
Loop time of 0.199246 on 1 procs for 10 steps with 64 atoms

Performance: 4.336 ns/day, 5.535 hours/ns, 50.189 timesteps/s
99.9% CPU use with 1 MPI tasks x no OpenMP threads

MPI task timing breakdown:
Section |  min time  |  avg time  |  max time  |%varavg| %total
---------------------------------------------------------------
Pair    | 0.19913    | 0.19913    | 0.19913    |   0.0 | 99.94
Neigh   | 0          | 0          | 0          |   0.0 |  0.00
Comm    | 3.097e-05  | 3.097e-05  | 3.097e-05  |   0.0 |  0.02
Output  | 3.653e-05  | 3.653e-05  | 3.653e-05  |   0.0 |  0.02
Modify  | 3.1519e-05 | 3.1519e-05 | 3.1519e-05 |   0.0 |  0.02
Other   |            | 1.378e-05  |            |       |  0.01

Nlocal:        64.0000 ave          64 max          64 min
Histogram: 1 0 0 0 0 0 0 0 0 0
Nghost:        886.000 ave         886 max         886 min
Histogram: 1 0 0 0 0 0 0 0 0 0
Neighs:         0.00000 ave           0 max           0 min
Histogram: 1 0 0 0 0 0 0 0 0 0
FullNghs:      6272.00 ave        6272 max        6272 min
Histogram: 1 0 0 0 0 0 0 0 0 0

Total # of neighbors = 6272
Ave neighs/atom = 98.000000
Neighbor list builds = 0
Dangerous builds = 0
Setting up Verlet run ...
  Unit style    : metal
  Current step  : 10
  Time step     : 0.001
Per MPI rank memory allocation (min/avg/max) = 3.089 | 3.089 | 3.089 Mbytes
Step Time Temp Volume Press 
      10         0.01    1272.7018    960.67076    24250.377 
      11        0.011    1251.2526    960.67076      24945.8 
      12        0.012    1228.1643    960.67076     25698.92 
      13        0.013    1203.5393    960.67076    26506.551 
      14        0.014    1177.4865    960.67076    27365.322 
      15        0.015    1150.1217    960.67076    28271.565 
      16        0.016    1121.5664    960.67076    29221.351 
      17        0.017    1091.9482    960.67076     30210.62 
      18        0.018    1061.3995    960.67076    31235.127 
      19        0.019    1030.0573    960.67076    32290.429 
      20         0.02    998.06226    960.67076    33371.983 
      21        0.021    965.55831    960.67076    34475.093 
      22        0.022    932.69142    960.67076    35594.958 
      23        0.023    899.60893    960.67076    36726.566 
      24        0.024    866.45832    960.67076    37863.726 
      25        0.025    833.38638    960.67076    39002.035 
      26        0.026    800.53838    960.67076    40135.687 
      27        0.027    768.05718    960.67076    41261.094 
      28        0.028    736.08244    960.67076    42373.764 
      29        0.029    704.74905    960.67076    43468.116 
      30         0.03    674.18641    960.67076    44540.958 
      31        0.031    644.51749    960.67076    45587.772 
      32        0.032    615.85775    960.67076    46604.224 
      33        0.033    588.31421    960.67076    47585.932 
      34        0.034      561.985    960.67076    48530.445 
      35        0.035    536.95863    960.67076    49433.597 
      36        0.036    513.31336    960.67076    50293.215 
      37        0.037    491.11683    960.67076    51106.293 
      38        0.038    470.42562    960.67076    51870.229 
      39        0.039    451.28522    960.67076    52583.983 
      40         0.04    433.73008    960.67076    53245.706 
      41        0.041    417.78349    960.67076    53854.189 
      42        0.042    403.45789    960.67076    54408.505 
      43        0.043    390.75515    960.67076    54908.362 
      44        0.044    379.66704    960.67076    55353.783 
      45        0.045    370.17574    960.67076    55745.368 
      46        0.046    362.25457    960.67076    56083.535 
      47        0.047    355.86842    960.67076    56368.732 
      48        0.048    350.97448    960.67076    56602.108 
      49        0.049    347.52298    960.67076    56784.705 
      50         0.05    345.45801    960.67076    56917.563 
      51        0.051    344.71828    960.67076    57003.572 
      52        0.052    345.23791    960.67076    57043.734 
      53        0.053    346.94708    960.67076    57039.654 
      54        0.054    349.77294    960.67076    56995.192 
      55        0.055    353.64037    960.67076    56913.122 
      56        0.056    358.47237    960.67076    56793.451 
      57        0.057    364.19083    960.67076    56639.998 
      58        0.058    370.71717    960.67076    56454.758 
      59        0.059    377.97284    960.67076    56241.232 
      60         0.06    385.87987    960.67076     56002.63 
      61        0.061    394.36128    960.67076    55741.941 
      62        0.062     403.3414    960.67076    55461.327 
      63        0.063    412.74573    960.67076    55159.864 
      64        0.064    422.50154    960.67076    54842.239 
      65        0.065    432.53886    960.67076    54511.368 
      66        0.066    442.79043    960.67076     54169.14 
      67        0.067    453.19142    960.67076    53816.624 
      68        0.068    463.67998    960.67076    53459.097 
      69        0.069    474.19725    960.67076    53095.997 
      70         0.07    484.68736    960.67076    52729.758 
      71        0.071    495.09803    960.67076    52361.839 
      72        0.072     505.3808    960.67076    51995.628 
      73        0.073    515.49098    960.67076    51632.969 
      74        0.074    525.38733    960.67076    51274.998 
      75        0.075    535.03227    960.67076    50922.327 
      76        0.076    544.39175    960.67076    50576.245 
      77        0.077    553.43497    960.67076    50237.186 
      78        0.078     562.1348    960.67076    49908.796 
      79        0.079    570.46782    960.67076    49591.874 
      80         0.08    578.41386    960.67076    49286.294 
      81        0.081    585.95619    960.67076    48993.079 
      82        0.082    593.08162    960.67076    48712.836 
      83        0.083    599.77984    960.67076     48446.94 
      84        0.084    606.04309    960.67076    48194.915 
      85        0.085    611.86637    960.67076    47957.132 
      86        0.086    617.24739    960.67076    47735.087 
      87        0.087    622.18636    960.67076    47529.251 
      88        0.088    626.68586    960.67076    47339.163 
      89        0.089    630.75066    960.67076    47165.601 
      90         0.09    634.38747    960.67076    47009.175 
      91        0.091    637.60472    960.67076    46868.903 
      92        0.092    640.41245    960.67076    46744.608 
      93        0.093    642.82214    960.67076    46636.184 
      94        0.094    644.84644    960.67076    46543.295 
      95        0.095    646.49909    960.67076    46464.853 
      96        0.096     647.7947    960.67076    46400.327 
      97        0.097    648.74874    960.67076    46348.759 
      98        0.098    649.37716    960.67076     46309.67 
      99        0.099    649.69594    960.67076    46281.679 
     100          0.1     649.7212    960.67076    46264.487 
Loop time of 1.90151 on 1 procs for 90 steps with 64 atoms

Performance: 4.089 ns/day, 5.869 hours/ns, 47.331 timesteps/s
100.0% CPU use with 1 MPI tasks x no OpenMP threads

MPI task timing breakdown:
Section |  min time  |  avg time  |  max time  |%varavg| %total
---------------------------------------------------------------
Pair    | 1.9005     | 1.9005     | 1.9005     |   0.0 | 99.95
Neigh   | 0.00023555 | 0.00023555 | 0.00023555 |   0.0 |  0.01
Comm    | 0.00027474 | 0.00027474 | 0.00027474 |   0.0 |  0.01
Output  | 0.00031602 | 0.00031602 | 0.00031602 |   0.0 |  0.02
Modify  | 0.00014624 | 0.00014624 | 0.00014624 |   0.0 |  0.01
Other   |            | 6.891e-05  |            |       |  0.00

Nlocal:        64.0000 ave          64 max          64 min
Histogram: 1 0 0 0 0 0 0 0 0 0
Nghost:        886.000 ave         886 max         886 min
Histogram: 1 0 0 0 0 0 0 0 0 0
Neighs:         0.00000 ave           0 max           0 min
Histogram: 1 0 0 0 0 0 0 0 0 0
FullNghs:      6174.00 ave        6174 max        6174 min
Histogram: 1 0 0 0 0 0 0 0 0 0

Total # of neighbors = 6174
Ave neighs/atom = 96.468750
Neighbor list builds = 1
Dangerous builds = 0
Setting up Verlet run ...
  Unit style    : metal
  Current step  : 100
  Time step     : 0.001
Per MPI rank memory allocation (min/avg/max) = 3.089 | 3.089 | 3.089 Mbytes
Step Time Temp Volume Press 
     100          0.1     649.7212    960.67076    46264.487 
     110         0.11    637.45652    960.67076    46614.901 
     120         0.12     614.4071    960.67076    47371.593 
     130         0.13    601.99999    960.67076    47670.542 
     140         0.14    622.89715    960.67076    46870.828 
     150         0.15    677.22874    960.67076    45128.565 
     160         0.16    735.20329    960.67076    43495.626 
     170         0.17    764.05395    960.67076    42946.467 
     180         0.18    748.00128    960.67076     43806.29 
     190         0.19    695.32919    960.67076    45733.602 
     200          0.2    646.84664    960.67076    47445.706 
     210         0.21    649.31675    960.67076    47544.186 
     220         0.22    700.96022    960.67076    46039.389 
     230         0.23    750.50291    960.67076    44563.141 
     240         0.24    750.21037    960.67076     44633.59 
     250         0.25     697.5381    960.67076     46399.75 
     260         0.26    636.70418    960.67076    48491.655 
     270         0.27    619.71052    960.67076     49308.98 
     280         0.28    659.85095    960.67076    48293.244 
     290         0.29    724.81398    960.67076    46322.991 
     300          0.3    773.18295    960.67076    44765.707 
     310         0.31    787.16768    960.67076    44333.257 
     320         0.32    772.70826    960.67076    44817.792 
     330         0.33    743.13518    960.67076    45898.038 
     340         0.34     706.1957    960.67076    47310.262 
     350         0.35    662.88236    960.67076     48969.41 
     360         0.36    618.13202    960.67076    50570.416 
     370         0.37    589.23416    960.67076    51451.158 
     380         0.38    595.78479    960.67076    51029.732 
     390         0.39    641.96464    960.67076    49234.899 
     400          0.4    709.77013    960.67076    46746.176 
     410         0.41    770.11556    960.67076     44590.56 
     420         0.42    799.43452    960.67076        43585 
     430         0.43    790.05689    960.67076    43923.174 
     440         0.44    751.99703    960.67076    45203.073 
     450         0.45    700.82842    960.67076    46973.696 
     460         0.46    648.06356    960.67076    48758.746 
     470         0.47    607.73479    960.67076    50023.017 
     480         0.48    597.15451    960.67076    50209.579 
     490         0.49    621.61882    960.67076    49348.879 
     500          0.5    664.61467    960.67076    47911.876 
     510         0.51    698.84622    960.67076    46694.388 
     520         0.52    707.33204    960.67076    46333.938 
     530         0.53    693.95234    960.67076    46745.841 
     540         0.54     675.7533    960.67076    47382.801 
     550         0.55     667.8534    960.67076    47762.099 
     560         0.56    676.60371    960.67076    47669.214 
     570         0.57    697.58141    960.67076    47266.953 
     580         0.58    716.39603    960.67076    46997.086 
     590         0.59     721.9287    960.67076     47089.89 
     600          0.6    717.38396    960.67076    47493.028 
     610         0.61    710.64757    960.67076    47951.897 
     620         0.62    701.88202    960.67076    48433.648 
     630         0.63    687.25348    960.67076    49109.255 
     640         0.64    667.09014    960.67076    49955.907 
     650         0.65    652.06164    960.67076    50536.604 
     660         0.66    663.96519    960.67076    50206.797 
     670         0.67     716.5521    960.67076    48659.377 
     680         0.68    783.20977    960.67076     46733.76 
     690         0.69    812.68505    960.67076    45854.537 
     700          0.7    785.00707    960.67076    46650.543 
     710         0.71    730.42428    960.67076    48285.132 
     720         0.72    695.39455    960.67076    49367.402 
     730         0.73    702.42894    960.67076    49210.814 
     740         0.74    738.70337    960.67076    48124.715 
     750         0.75    771.05791    960.67076    46956.516 
     760         0.76    776.54629    960.67076    46440.564 
     770         0.77    758.62852    960.67076    46596.764 
     780         0.78     733.4845    960.67076    47015.928 
     790         0.79     711.4486    960.67076    47293.525 
     800          0.8    691.68548    960.67076    47450.207 
     810         0.81    666.99287    960.67076    47700.074 
     820         0.82    634.86701    960.67076    48107.145 
     830         0.83    609.15989    960.67076    48248.099 
     840         0.84    617.41049    960.67076    47284.689 
     850         0.85    669.08521    960.67076    44987.127 
     860         0.86    726.97803    960.67076    42530.579 
     870         0.87     742.1448    960.67076    41386.538 
     880         0.88    704.49116    960.67076    42082.962 
     890         0.89    640.21968    960.67076    43746.318 
     900          0.9    582.92412    960.67076    45297.858 
     910         0.91    554.24555    960.67076    46048.578 
     920         0.92    554.64133    960.67076    45865.285 
     930         0.93    566.01379    960.67076    45272.863 
     940         0.94    569.69803    960.67076    44899.054 
     950         0.95    564.84327    960.67076    44870.848 
     960         0.96    568.95225    960.67076    44773.676 
     970         0.97    595.98652    960.67076    44185.117 
     980         0.98    638.13557    960.67076    43230.518 
     990         0.99    675.86245    960.67076    42507.021 
    1000            1    693.95949    960.67076    42472.842 
Loop time of 17.8308 on 1 procs for 900 steps with 64 atoms

Performance: 4.361 ns/day, 5.503 hours/ns, 50.474 timesteps/s
100.0% CPU use with 1 MPI tasks x no OpenMP threads

MPI task timing breakdown:
Section |  min time  |  avg time  |  max time  |%varavg| %total
---------------------------------------------------------------
Pair    | 17.822     | 17.822     | 17.822     |   0.0 | 99.95
Neigh   | 0.0032525  | 0.0032525  | 0.0032525  |   0.0 |  0.02
Comm    | 0.0027731  | 0.0027731  | 0.0027731  |   0.0 |  0.02
Output  | 0.0003832  | 0.0003832  | 0.0003832  |   0.0 |  0.00
Modify  | 0.0013945  | 0.0013945  | 0.0013945  |   0.0 |  0.01
Other   |            | 0.0006335  |            |       |  0.00

Nlocal:        64.0000 ave          64 max          64 min
Histogram: 1 0 0 0 0 0 0 0 0 0
Nghost:        880.000 ave         880 max         880 min
Histogram: 1 0 0 0 0 0 0 0 0 0
Neighs:         0.00000 ave           0 max           0 min
Histogram: 1 0 0 0 0 0 0 0 0 0
FullNghs:      6176.00 ave        6176 max        6176 min
Histogram: 1 0 0 0 0 0 0 0 0 0

Total # of neighbors = 6176
Ave neighs/atom = 96.500000
Neighbor list builds = 15
Dangerous builds = 0
Setting up Verlet run ...
  Unit style    : metal
  Current step  : 1000
  Time step     : 0.001
Per MPI rank memory allocation (min/avg/max) = 3.089 | 3.089 | 3.089 Mbytes
Step Time Temp Volume Press 
    1000            1    693.95949    960.67076    42472.842 
    1100          1.1    672.92686    960.67076    51563.029 
    1200          1.2    703.61254    960.67076    51454.561 
    1300          1.3    636.01032    960.67076    51898.861 
    1400          1.4    700.88128    960.67076    49081.584 
    1500          1.5      678.387    960.67076    50232.822 
    1600          1.6    850.34084    960.67076    47877.045 
    1700          1.7    746.12732    960.67076    49767.871 
    1800          1.8    695.77874    960.67076    45675.334 
    1900          1.9    694.81689    960.67076    44041.852 
    2000            2    626.18007    960.67076    47203.663 
    2100          2.1    788.07597    960.67076    49885.208 
    2200          2.2    754.85581    960.67076    54409.453 
    2300          2.3    682.23461    960.67076    51342.461 
    2400          2.4    610.69367    960.67076    46977.157 
    2500          2.5    699.19338    960.67076    44484.528 
    2600          2.6    698.52571    960.67076    46325.186 
    2700          2.7    685.21714    960.67076    49768.607 
    2800          2.8    706.46511    960.67076    50791.462 
    2900          2.9    822.74263    960.67076    46321.546 
    3000            3    671.44115    960.67076    48316.349 
    3100          3.1    678.10904    960.67076    43946.265 
    3200          3.2      622.003    960.67076    44782.281 
    3300          3.3     618.1701    960.67076    46037.274 
    3400          3.4    727.45858    960.67076    52204.136 
    3500          3.5    658.31435    960.67076    53220.238 
    3600          3.6    810.49716    960.67076    47475.087 
    3700          3.7    685.12481    960.67076    43155.024 
    3800          3.8    665.91288    960.67076    44085.639 
    3900          3.9    616.92861    960.67076    50432.676 
    4000            4    665.31084    960.67076    50246.249 
    4100          4.1    671.61662    960.67076    48221.308 
    4200          4.2    644.98952    960.67076    45627.345 
    4300          4.3    561.76826    960.67076    45377.013 
    4400          4.4    737.74073    960.67076    39930.775 
    4500          4.5    749.21562    960.67076    49040.309 
    4600          4.6      768.918    960.67076    49410.296 
    4700          4.7    706.98015    960.67076    47471.298 
    4800          4.8    613.33822    960.67076    47438.992 
    4900          4.9    758.54048    960.67076    44904.042 
    5000            5    715.12955    960.67076     48031.85 
    5100          5.1    692.76478    960.67076    46508.221 
    5200          5.2    665.82085    960.67076    47027.228 
    5300          5.3    759.14976    960.67076    45600.263 
    5400          5.4    625.34976    960.67076     49853.47 
    5500          5.5    720.28918    960.67076    50325.442 
    5600          5.6    747.17558    960.67076    53326.206 
    5700          5.7    774.77388    960.67076    49478.957 
    5800          5.8    646.36321    960.67076    46929.172 
    5900          5.9    704.68485    960.67076    43984.685 
    6000            6    611.90793    960.67076    45893.847 
    6100          6.1    638.97838    960.67076    46153.066 
    6200          6.2     727.7054    960.67076    50015.214 
    6300          6.3    776.03638    960.67076    52829.566 
    6400          6.4    680.34294    960.67076    49782.525 
    6500          6.5    618.16928    960.67076    46976.307 
    6600          6.6    602.08448    960.67076    47430.438 
    6700          6.7    743.83413    960.67076    44961.394 
    6800          6.8    648.49846    960.67076    49995.422 
    6900          6.9    761.38259    960.67076    45417.279 
    7000            7    553.04418    960.67076    44831.395 
    7100          7.1     663.0675    960.67076    44122.503 
    7200          7.2      764.621    960.67076    45159.424 
    7300          7.3    598.02338    960.67076    51317.666 
    7400          7.4    754.91787    960.67076    49735.818 
    7500          7.5    791.27708    960.67076    57296.947 
    7600          7.6    826.19925    960.67076    49646.809 
    7700          7.7    640.35146    960.67076    51700.057 
    7800          7.8    701.56257    960.67076    46513.646 
    7900          7.9    724.15081    960.67076    42796.562 
    8000            8     596.6479    960.67076    44003.705 
    8100          8.1    555.53745    960.67076    49507.352 
    8200          8.2    740.42458    960.67076    48899.032 
    8300          8.3    702.41657    960.67076    47974.103 
    8400          8.4    700.14648    960.67076    45126.262 
    8500          8.5    629.63853    960.67076    47164.876 
    8600          8.6    729.35514    960.67076    43677.072 
    8700          8.7     615.9076    960.67076    45244.779 
    8800          8.8     740.2437    960.67076    45592.833 
    8900          8.9    770.96388    960.67076    48125.599 
    9000            9     737.1954    960.67076    52606.673 
    9100          9.1    727.94618    960.67076    53964.067 
    9200          9.2    624.87648    960.67076    47511.579 
    9300          9.3    563.06907    960.67076    48702.477 
    9400          9.4    762.20095    960.67076    44683.588 
    9500          9.5    674.88783    960.67076    52149.342 
    9600          9.6    766.44048    960.67076    52862.467 
    9700          9.7    720.45707    960.67076    51948.982 
    9800          9.8    645.96618    960.67076    47112.525 
    9900          9.9    607.00904    960.67076    46158.758 
   10000           10    711.24158    960.67076    44264.904 
Loop time of 189.774 on 1 procs for 9000 steps with 64 atoms

Performance: 4.098 ns/day, 5.857 hours/ns, 47.425 timesteps/s
100.0% CPU use with 1 MPI tasks x no OpenMP threads

MPI task timing breakdown:
Section |  min time  |  avg time  |  max time  |%varavg| %total
---------------------------------------------------------------
Pair    | 189.69     | 189.69     | 189.69     |   0.0 | 99.95
Neigh   | 0.036263   | 0.036263   | 0.036263   |   0.0 |  0.02
Comm    | 0.029548   | 0.029548   | 0.029548   |   0.0 |  0.02
Output  | 0.00051218 | 0.00051218 | 0.00051218 |   0.0 |  0.00
Modify  | 0.014535   | 0.014535   | 0.014535   |   0.0 |  0.01
Other   |            | 0.006713   |            |       |  0.00

Nlocal:        64.0000 ave          64 max          64 min
Histogram: 1 0 0 0 0 0 0 0 0 0
Nghost:        886.000 ave         886 max         886 min
Histogram: 1 0 0 0 0 0 0 0 0 0
Neighs:         0.00000 ave           0 max           0 min
Histogram: 1 0 0 0 0 0 0 0 0 0
FullNghs:      6246.00 ave        6246 max        6246 min
Histogram: 1 0 0 0 0 0 0 0 0 0

Total # of neighbors = 6246
Ave neighs/atom = 97.593750
Neighbor list builds = 160
Dangerous builds = 0
System init for write_data ...
Total wall time: 0:03:29
