ITEM: TIMESTEP
10000
ITEM: NUMBER OF ATOMS
64
ITEM: BOX BOUNDS xy xz yz pp pp pp
0.0000000000000000e+00 1.0479999999999203e+01 0.0000000000000000e+00
0.0000000000000000e+00 9.0759462316602288e+00 0.0000000000000000e+00
0.0000000000000000e+00 1.0100000000000000e+01 0.0000000000000000e+00
ITEM: ATOMS id type x y z
1 1 1.15337 5.35043 4.09402
2 1 1.36151 5.42728 8.92514
3 1 10.2777 7.57823 3.94379
4 1 10.3306 7.53749 8.99695
5 1 6.69174 0.703759 4.21352
6 1 6.70054 0.803012 8.8983
7 1 4.84337 3.01783 3.90503
8 1 5.20778 2.88191 8.55097
9 1 1.24414 0.566514 3.6045
10 1 1.22786 0.676317 8.35626
11 1 0.0403734 2.92617 3.90252
12 1 10.4163 3.07441 8.772
13 1 3.59157 0.818608 3.75451
14 1 3.95509 0.808962 8.68564
15 1 2.51121 3.16712 3.454
16 1 2.61911 3.04761 8.83027
17 1 6.49096 5.15999 3.86055
18 1 6.63495 5.4725 8.38862
19 1 4.99915 7.57725 4.01088
20 1 5.46743 7.68901 8.76421
21 1 9.07349 5.09746 3.71327
22 1 9.08109 5.26795 9.10448
23 1 7.74397 7.3455 3.54285
24 1 7.9856 7.72648 9.14697
25 1 3.90659 5.43561 3.79372
26 1 4.07839 5.28757 8.82256
27 1 2.44185 7.40998 3.70883
28 1 2.73497 7.51335 8.53231
29 1 9.10469 0.730025 3.89091
30 1 9.2431 0.857125 8.40176
31 1 7.90383 2.86578 3.88717
32 1 7.86113 3.08616 8.8748
33 1 5.58916 1.613 1.65882
34 1 5.0879 1.67697 6.21757
35 1 3.91465 3.89524 1.17284
36 1 3.96783 3.93322 6.58066
37 1 2.76942 6.20972 1.1525
38 1 2.71208 5.78765 6.60803
39 1 1.39609 8.28433 0.952161
40 1 1.26378 8.23357 6.02664
41 1 0.0874015 1.49796 1.41919
42 1 10.4367 1.4496 6.22697
43 1 2.60915 1.5487 0.892299
44 1 2.59501 1.56957 6.13605
45 1 1.46898 3.88591 1.30658
46 1 1.31637 3.61862 6.43398
47 1 0.0811514 6.05281 1.37862
48 1 10.4409 6.04779 6.87137
49 1 9.19143 3.60486 1.23207
50 1 9.17029 3.8681 6.22801
51 1 7.99886 5.9054 1.37819
52 1 7.84873 6.04326 6.1006
53 1 6.51787 8.32463 1.67238
54 1 6.47346 8.51314 6.44086
55 1 9.35223 8.06535 1.58298
56 1 9.38224 8.5424 6.38787
57 1 7.98206 1.37741 1.03306
58 1 7.68601 1.56002 6.51548
59 1 6.64126 3.72853 1.29296
60 1 6.54547 3.89742 5.93993
61 1 5.29077 5.94188 1.1559
62 1 5.29358 6.18691 6.41632
63 1 4.09298 8.37637 1.04106
64 1 3.71265 8.28254 6.41671
