 vasp.6.3.2 27Jun22 (build Aug 29 2022 23:59:14) gamma-only                      
 executed on              LinuxNV date 2023.06.25  06:20:27
 running  256 mpi-ranks, with    2 threads/rank
 distrk:  each k-point on  256 cores,    1 groups
 distr:  one band on NCORE=   1 cores,  256 groups
 -----------------------------------------------------------------------------
|                                                                             |
|     EEEEEEE  RRRRRR   RRRRRR   OOOOOOO  RRRRRR      ###     ###     ###     |
|     E        R     R  R     R  O     O  R     R     ###     ###     ###     |
|     E        R     R  R     R  O     O  R     R     ###     ###     ###     |
|     EEEEE    RRRRRR   RRRRRR   O     O  RRRRRR       #       #       #      |
|     E        R   R    R   R    O     O  R   R                               |
|     E        R    R   R    R   O     O  R    R      ###     ###     ###     |
|     EEEEEEE  R     R  R     R  OOOOOOO  R     R     ###     ###     ###     |
|                                                                             |
|     ERROR: the following files does not exist POSCAR                        |
|                                                                             |
|       ---->  I REFUSE TO CONTINUE WITH THIS SICK JOB ... BYE!!! <----       |
|                                                                             |
 -----------------------------------------------------------------------------

